 Gaussian 16, Revision C.01,
 Gaussian 16:  ES64L-G16RevC.01  3-Jul-2019

 ----------------------------------------------------------------------
 #N M062X/def2svp OPT FREQ=NoRaman temperature=273.15 Integral(Grid=Ult
 raFine)
 ----------------------------------------------------------------------

 ----------------
 My cool molecule
 ----------------
 Symbolic Z-matrix:
 Charge =  0 Multiplicity = 1

 SCF Done:  E(RM062X) =  -274.835077837     A.U. after   12 cycles
 SCF Done:  E(RM062X) =  -274.840930285     A.U. after   10 cycles
 SCF Done:  E(RM062X) =  -274.841184603     A.U. after    9 cycles
 SCF Done:  E(RM062X) =  -274.841220237     A.U. after    9 cycles
 Optimization completed.
    -- Stationary point found.
 Normal termination of Gaussian 16 at Mon Dec 27 13:05:08 2021.

 -------------------------------------------------------------------
 #N Geom=AllCheck Guess=TCheck SCRF=Check GenChk RM062X/def2SVP Freq
 -------------------------------------------------------------------

 Structure from the checkpoint file:  "eqMeCyhex.chk"
 ----------------
 My cool molecule
 ----------------
 Charge =  0 Multiplicity = 1

                         Standard orientation:
 ---------------------------------------------------------------------
 Center     Atomic      Atomic             Coordinates (Angstroms)
 Number     Number       Type             X           Y           Z
 ---------------------------------------------------------------------
      1          6           0        0.291619    1.256064    0.169031
      2          6           0        1.012915   -0.000021   -0.330006
      3          6           0        0.291590   -1.256066    0.169089
      4          6           0       -1.188463   -1.260045   -0.213141
      5          6           0       -1.892625   -0.000009    0.290465
      6          6           0       -1.188467    1.260055   -0.213083
      7          1           0        0.793390   -2.155559   -0.222197
      8          1           0        0.952873   -0.000044   -1.434658
      9          1           0        0.384389    1.298381    1.269966
     10          1           0        0.793375    2.155510   -0.222427
     11          1           0       -1.276805   -1.307531   -1.312528
     12          1           0       -1.682443   -2.160980    0.181334
     13          1           0       -2.949156    0.000015   -0.017786
     14          1           0       -1.885050   -0.000038    1.394530
     15          1           0       -1.276914    1.307681   -1.312450
     16          1           0       -1.682390    2.160951    0.181560
     17          1           0        0.384255   -1.298243    1.270042
     18          6           0        2.482760   -0.000004    0.073171
     19          1           0        3.003648   -0.890282   -0.309606
     20          1           0        3.003618    0.890291   -0.309609
     21          1           0        2.581232   -0.000000    1.170680
 ---------------------------------------------------------------------

 SCF Done:  E(RM062X) =  -274.841220237     A.U. after    1 cycles

 The electronic state is 1-A.
 Alpha  occ. eigenvalues --  -10.54536 -10.54129 -10.54120 -10.54093 -10.54006
 Alpha  occ. eigenvalues --  -10.54003 -10.53789  -0.92707  -0.84885  -0.82249
 Alpha  occ. eigenvalues --   -0.75100  -0.68074  -0.65425  -0.62146  -0.54149
 Alpha  occ. eigenvalues --   -0.51304  -0.50345  -0.49775  -0.47467  -0.44330
 Alpha  occ. eigenvalues --   -0.43664  -0.42550  -0.40711  -0.39546  -0.38521
 Alpha  occ. eigenvalues --   -0.36792  -0.35130  -0.34708
 Alpha virt. eigenvalues --    0.09256   0.10898   0.11534   0.12951   0.16336
 Alpha virt. eigenvalues --    0.16901   0.16980   0.17598   0.18764   0.19105
 Alpha virt. eigenvalues --    0.19283   0.20049   0.21360   0.21728   0.24278

 Mulliken charges:
               1
     1  C   -0.029665
     2  C   -0.198955
     3  C   -0.029655
     4  C   -0.031676
     5  C   -0.061744
     6  C   -0.031682
     7  H    0.028945
     8  H    0.021142
     9  H    0.017464
    10  H    0.028946
    11  H    0.022482
    12  H    0.033421
    13  H    0.033967
    14  H    0.024267
    15  H    0.022485
    16  H    0.033420
    17  H    0.017460
    18  C   -0.002191
    19  H    0.035586
    20  H    0.035585
    21  H    0.030398
 Sum of Mulliken charges =  -0.00000

 Dipole moment (field-independent basis, Debye):
    X=             -0.0460    Y=              0.0000    Z=             -0.0588  Tot=              0.0747
 Quadrupole moment (field-independent basis, Debye-Ang):
   XX=            -47.4536   YY=            -47.0802   ZZ=            -46.6829
   XY=             -0.0000   XZ=             -0.2058   YZ=             -0.0000

  Exact polarizability:      82.477      -0.000      75.534       0.102      -0.000      67.908
 Approx polarizability:      85.307      -0.000      84.932       0.100      -0.000      86.758

                      1                      2                      3
                      A                      A                      A
 Frequencies --    159.1459               229.6806               248.3997
 Red. masses --      2.2917                 1.2669                 1.3457
 Frc consts  --      0.0342                 0.0394                 0.0489
 IR Inten    --      0.0025                 0.0069                 0.0006

                      4                      5                      6
                      A                      A                      A
 Frequencies --    310.9156               336.8104               410.5391
 Red. masses --      2.2408                 1.7084                 3.2710
 Frc consts  --      0.1276                 0.1142                 0.3248
 IR Inten    --      0.0025                 0.0303                 0.0576

                      7                      8                      9
                      A                      A                      A
 Frequencies --    444.2144               450.5968               544.3967
 Red. masses --      1.6821                 2.8883                 1.6333
 Frc consts  --      0.1956                 0.3455                 0.2852
 IR Inten    --      0.1995                 0.0191                 0.2986

                     10                     11                     12
                      A                      A                      A
 Frequencies --    789.7879               792.6080               854.6881
 Red. masses --      2.3998                 1.4639                 1.4043
 Frc consts  --      0.8819                 0.5418                 0.6044
 IR Inten    --      0.0480                 0.0094                 0.9559

                     13                     14                     15
                      A                      A                      A
 Frequencies --    873.7914               890.9111               920.0813
 Red. masses --      2.2530                 1.6720                 1.4478
 Frc consts  --      1.0135                 0.7819                 0.7221
 IR Inten    --      0.6191                 1.7340                 1.5903

                     16                     17                     18
                      A                      A                      A
 Frequencies --    973.6844               988.7365               991.2556
 Red. masses --      1.2912                 2.3485                 1.5323
 Frc consts  --      0.7212                 1.3527                 0.8871
 IR Inten    --      3.1801                 0.4109                 1.9980

                     19                     20                     21
                      A                      A                      A
 Frequencies --   1054.6756              1070.5336              1095.3715
 Red. masses --      1.5978                 1.0612                 1.1965
 Frc consts  --      1.0472                 0.7165                 0.8459
 IR Inten    --      0.1561                 0.0547                 0.4398

                     22                     23                     24
                      A                      A                      A
 Frequencies --   1126.6306              1148.6534              1182.1347
 Red. masses --      2.4293                 1.8927                 2.3469
 Frc consts  --      1.8168                 1.4713                 1.9323
 IR Inten    --      1.0214                 0.3027                 0.0562

                     25                     26                     27
                      A                      A                      A
 Frequencies --   1228.4320              1265.5910              1278.4816
 Red. masses --      1.5179                 1.3187                 1.2611
 Frc consts  --      1.3496                 1.2445                 1.2145
 IR Inten    --      0.0514                 1.7560                 1.9693

                     28                     29                     30
                      A                      A                      A
 Frequencies --   1282.6920              1320.9785              1322.0618
 Red. masses --      1.2136                 1.2884                 1.2302
 Frc consts  --      1.1764                 1.3246                 1.2669
 IR Inten    --      0.8402                 0.0037                 0.2579

                     31                     32                     33
                      A                      A                      A
 Frequencies --   1358.4264              1382.0055              1383.7883
 Red. masses --      1.4530                 1.5870                 1.5926
 Frc consts  --      1.5797                 1.7859                 1.7968
 IR Inten    --      0.2593                 0.3479                 0.6785

                     34                     35                     36
                      A                      A                      A
 Frequencies --   1386.9658              1393.5445              1409.2375
 Red. masses --      1.7789                 1.3100                 1.9544
 Frc consts  --      2.0162                 1.4989                 2.2868
 IR Inten    --      0.4775                 2.3892                 3.0957

                     37                     38                     39
                      A                      A                      A
 Frequencies --   1448.9187              1457.4403              1461.1891
 Red. masses --      1.0866                 1.1127                 1.1208
 Frc consts  --      1.3440                 1.3925                 1.4099
 IR Inten    --      0.0030                 2.3627                 5.5630

                     40                     41                     42
                      A                      A                      A
 Frequencies --   1462.9547              1470.6311              1474.4402
 Red. masses --      1.0941                 1.0479                 1.0764
 Frc consts  --      1.3796                 1.3353                 1.3788
 IR Inten    --     13.0249                10.5391                 3.6245

                     43                     44                     45
                      A                      A                      A
 Frequencies --   1480.5585              3023.2530              3032.7395
 Red. masses --      1.1133                 1.0810                 1.0661
 Frc consts  --      1.4378                 5.8216                 5.7773
 IR Inten    --      1.9009                 3.5945                19.2588

                     46                     47                     48
                      A                      A                      A
 Frequencies --   3038.9999              3047.2302              3048.9172
 Red. masses --      1.0686                 1.0692                 1.0654
 Frc consts  --      5.8147                 5.8497                 5.8349
 IR Inten    --     36.0561                28.0644                11.9469

                     49                     50                     51
                      A                      A                      A
 Frequencies --   3049.2594              3052.3115              3096.5089
 Red. masses --      1.0385                 1.0622                 1.0997
 Frc consts  --      5.6891                 5.8306                 6.2127
 IR Inten    --     25.9182                51.7207                46.3193

                     52                     53                     54
                      A                      A                      A
 Frequencies --   3098.8959              3109.6631              3109.8066
 Red. masses --      1.1003                 1.0972                 1.1018
 Frc consts  --      6.2257                 6.2513                 6.2781
 IR Inten    --     28.3535                39.8336                28.4453

                     55                     56                     57
                      A                      A                      A
 Frequencies --   3114.0630              3133.8145              3143.4479
 Red. masses --      1.1052                 1.1028                 1.1042
 Frc consts  --      6.3145                 6.3810                 6.4283
 IR Inten    --     50.5746                32.9182                23.5698

 - Thermochemistry -
 -------------------
 Temperature   273.150 Kelvin.  Pressure   1.00000 Atm.
 Atom     1 has atomic number  6 and mass  12.00000

 Molecular mass:    98.10955 amu.
 Principal axes and moments of inertia in atomic units:
                           1         2         3
     Eigenvalues --   427.97368 823.374201132.39584
           X            1.00000  -0.00000   0.00295
           Y            0.00000   1.00000  -0.00000
           Z           -0.00295   0.00000   1.00000
 This molecule is an asymmetric top.
 Rotational symmetry number  1.
 Rotational temperatures (Kelvin)      0.20238     0.10519     0.07649
 Rotational constants (GHZ):           4.21694     2.19188     1.59374
 Zero-point vibrational energy     521903.7 (Joules/Mol)
                                  124.73799 (Kcal/Mol)
 Warning -- explicit consideration of   9 degrees of freedom as
           vibrations may cause significant error
 Vibrational temperatures:    228.98   330.46   357.39   447.34   484.60
          (Kelvin)            590.67   639.13   648.31   783.27  1136.33
                             1140.39  1229.71  1257.19  1281.82  1323.79
                             1400.91  1422.57  1426.20  1517.44  1540.26
                             1576.00  1620.97  1652.66  1700.83  1767.44
                             1820.90  1839.45  1845.51  1900.59  1902.15
                             1954.47  1988.40  1990.96  1995.53  2005.00
                             2027.58  2084.67  2096.93  2102.33  2104.87
                             2115.91  2121.39  2130.19  4349.79  4363.44
                             4372.44  4384.28  4386.71  4387.20  4391.60
                             4455.19  4458.62  4474.11  4474.32  4480.44
                             4508.86  4522.72

 Zero-point correction=                           0.198783 (Hartree/Particle)
 Thermal correction to Energy=                    0.204789
 Thermal correction to Enthalpy=                  0.205654
 Thermal correction to Gibbs Free Energy=         0.171472
 Sum of electronic and zero-point Energies=           -274.642438
 Sum of electronic and thermal Energies=              -274.636431
 Sum of electronic and thermal Enthalpies=            -274.635566
 Sum of electronic and thermal Free Energies=         -274.669748

                     E (Thermal)             CV                S
                      KCal/Mol        Cal/Mol-Kelvin    Cal/Mol-Kelvin
 Total                  128.507             25.723             78.527
 Electronic               0.000              0.000              0.000
 Translational            0.814              2.981             39.226
 Rotational               0.814              2.981             27.220
 Vibrational            126.879             19.761             12.081
 Vibration     1          0.574              1.875              2.395
 Vibration     2          0.607              1.762              1.726
 Vibration     3          0.618              1.726              1.589
 Vibration     4          0.659              1.597              1.215
 Vibration     5          0.678              1.539              1.090
 Vibration     6          0.739              1.365              0.801
 Vibration     7          0.770              1.284              0.697
 Vibration     8          0.777              1.268              0.679
 Vibration     9          0.872              1.044              0.460

 Optimization completed.
    -- Stationary point found.
 Normal termination of Gaussian 16 at Mon Dec 27 13:06:58 2021.
