 Gaussian 16, Revision C.01,
 Gaussian 16:  ES64L-G16RevC.01  3-Jul-2019

 -----------------------------------------------------------------
 #N M062X/gen extraBasis OPT FREQ=NoRaman Integral(Grid=UltraFine)
 -----------------------------------------------------------------

 -------------------------------------------------------
 E-isomer - CH: def2svp - NOSF: def2tzvp - N O12 O13: +d
 -------------------------------------------------------
 Symbolic Z-matrix:
 Charge =  0 Multiplicity = 1

 SCF Done:  E(RM062X) =  -1553.05012547     A.U. after   16 cycles
 SCF Done:  E(RM062X) =  -1553.14817116     A.U. after   16 cycles
 SCF Done:  E(RM062X) =  -1553.18293857     A.U. after   15 cycles
 SCF Done:  E(RM062X) =  -1553.18250949     A.U. after   17 cycles
 SCF Done:  E(RM062X) =  -1553.20762747     A.U. after   15 cycles
 SCF Done:  E(RM062X) =  -1553.20992731     A.U. after   17 cycles
 SCF Done:  E(RM062X) =  -1553.21341328     A.U. after   14 cycles
 SCF Done:  E(RM062X) =  -1553.21084108     A.U. after   15 cycles
 SCF Done:  E(RM062X) =  -1553.21358765     A.U. after   14 cycles
 SCF Done:  E(RM062X) =  -1553.21520942     A.U. after   14 cycles
 SCF Done:  E(RM062X) =  -1553.21765227     A.U. after   12 cycles
 SCF Done:  E(RM062X) =  -1553.21766808     A.U. after   10 cycles
 SCF Done:  E(RM062X) =  -1553.21768643     A.U. after   12 cycles
 SCF Done:  E(RM062X) =  -1553.21769820     A.U. after   12 cycles
 SCF Done:  E(RM062X) =  -1553.21770250     A.U. after   11 cycles
 SCF Done:  E(RM062X) =  -1553.21770333     A.U. after    9 cycles
 SCF Done:  E(RM062X) =  -1553.21770342     A.U. after    7 cycles
 SCF Done:  E(RM062X) =  -1553.21770371     A.U. after    8 cycles
 SCF Done:  E(RM062X) =  -1553.21770374     A.U. after    9 cycles
 Optimization completed.
    -- Stationary point found.
 Normal termination of Gaussian 16 at Fri Dec 31 13:41:24 2021.

 ------------------------------------------------------------------
 #N Geom=AllCheck Guess=TCheck SCRF=Check GenChk RM062X/ChkBas Freq
 ------------------------------------------------------------------

 Structure from the checkpoint file:  "E-isomer.chk"
 -------------------------------------------------------
 E-isomer - CH: def2svp - NOSF: def2tzvp - N O12 O13: +d
 -------------------------------------------------------
 Charge =  0 Multiplicity = 1

                         Standard orientation:
 ---------------------------------------------------------------------
 Center     Atomic      Atomic             Coordinates (Angstroms)
 Number     Number       Type             X           Y           Z
 ---------------------------------------------------------------------
      1          6           0       -3.367123   -0.964980   -0.673958
      2          6           0       -4.330432   -0.169673   -0.066545
      3          6           0       -4.011816    0.992316    0.626657
      4          6           0       -2.675439    1.366085    0.711355
      5          6           0       -1.672883    0.580872    0.124045
      6          6           0       -2.033784   -0.579782   -0.574804
      7          1           0       -3.670435   -1.859892   -1.214526
      8          1           0       -4.805403    1.579164    1.085719
      9          1           0       -2.404203    2.272162    1.255571
     10          1           0       -1.255961   -1.176067   -1.055093
     11          7           0       -5.747384   -0.571677   -0.163563
     12          8           0       -5.999168   -1.588645   -0.767572
     13          8           0       -6.567395    0.140808    0.368138
     14          6           0       -0.245306    0.996936    0.205373
     15          6           0        0.660122    0.165148    0.734173
     16          6           0        0.484551   -1.169813    1.373644
     17          1           0       -0.571280   -1.367856    1.587616
     18          1           0        0.870815   -1.968693    0.721873
     19          1           0        1.053682   -1.202175    2.313830
     20          6           0        0.108980    2.336496   -0.382506
     21          1           0        0.121129    2.268162   -1.481489
     22          1           0       -0.649190    3.084994   -0.114126
     23          1           0        1.089815    2.693258   -0.046407
     24         16           0        2.917996    0.442767   -0.517918
     25          8           0        3.631006    1.649117   -0.713350
     26          8           0        2.198633   -0.204517   -1.556279
     27          6           0        4.128006   -0.773270    0.151569
     28          9           0        4.746485   -0.268022    1.204920
     29          9           0        5.010429   -1.052521   -0.792758
     30          9           0        3.496016   -1.885137    0.507098
     31          8           0        2.014319    0.598680    0.760477
 ---------------------------------------------------------------------

 SCF Done:  E(RM062X) =  -1553.21770374     A.U. after    1 cycles

 The electronic state is 1-A.
 Alpha  occ. eigenvalues --  -90.15849 -25.32776 -25.32511 -25.32494 -19.72835
 Alpha  occ. eigenvalues --  -19.67304 -19.67301 -19.67165 -19.66849 -15.00961
 Alpha  occ. eigenvalues --  -10.86551 -10.65834 -10.63667 -10.61050 -10.60247
 Alpha  occ. eigenvalues --  -10.60221 -10.60214 -10.59926 -10.59817 -10.58562
 Alpha  occ. eigenvalues --  -10.57955  -8.48565  -6.40830  -6.40648  -6.40578
 Alpha  occ. eigenvalues --   -1.51726  -1.42541  -1.42456  -1.38534  -1.32975
 Alpha  occ. eigenvalues --   -1.22242  -1.19810  -1.18856  -1.01094  -0.96030
 Alpha  occ. eigenvalues --   -0.91337  -0.88310  -0.87846  -0.86220  -0.81389
 Alpha  occ. eigenvalues --   -0.79909  -0.76540  -0.74610  -0.74234  -0.73727
 Alpha  occ. eigenvalues --   -0.72675  -0.69500  -0.66721  -0.65749  -0.64243
 Alpha  occ. eigenvalues --   -0.63115  -0.62402  -0.61800  -0.61571  -0.60905
 Alpha  occ. eigenvalues --   -0.59529  -0.58110  -0.58051  -0.57135  -0.56545
 Alpha  occ. eigenvalues --   -0.55993  -0.55729  -0.54982  -0.53152  -0.52949
 Alpha  occ. eigenvalues --   -0.51235  -0.49827  -0.49731  -0.49117  -0.47921
 Alpha  occ. eigenvalues --   -0.47130  -0.46001  -0.45097  -0.44834  -0.44544
 Alpha  occ. eigenvalues --   -0.43250  -0.42459  -0.40284  -0.39520  -0.39496
 Alpha  occ. eigenvalues --   -0.36303  -0.34932  -0.32341
 Alpha virt. eigenvalues --   -0.06815  -0.01597   0.00174   0.03685   0.04595
 Alpha virt. eigenvalues --    0.05310   0.06269   0.07150   0.07998   0.08306
 Alpha virt. eigenvalues --    0.08566   0.08887   0.09587   0.10283   0.11239

 Mulliken charges:
               1
     1  C    0.037370
     2  C    0.047749
     3  C    0.034972
     4  C   -0.006455
     5  C   -0.021682
     6  C   -0.005705
     7  H    0.071962
     8  H    0.071126
     9  H    0.030760
    10  H    0.036317
    11  N    0.895689
    12  O   -0.625065
    13  O   -0.625054
    14  C   -0.156876
    15  C    0.051812
    16  C    0.050083
    17  H    0.072492
    18  H    0.082578
    19  H    0.071509
    20  C    0.059059
    21  H    0.080728
    22  H    0.054455
    23  H    0.084688
    24  S    0.700109
    25  O   -0.391626
    26  O   -0.394325
    27  C    0.699608
    28  F   -0.202378
    29  F   -0.203945
    30  F   -0.221584
    31  O   -0.378369
 Sum of Mulliken charges =  -0.00000

 Dipole moment (field-independent basis, Debye):
    X=              1.7275    Y=              0.3521    Z=              2.0106  Tot=              2.6741
 Quadrupole moment (field-independent basis, Debye-Ang):
   XX=           -170.4455   YY=           -122.6618   ZZ=           -126.9857
   XY=            -12.9536   XZ=              1.2232   YZ=              0.2082

  Exact polarizability:     238.237       2.669     152.087       1.673      11.309     118.042
 Approx polarizability:     244.823      -0.463     212.071       1.002      28.165     167.669

                      1                      2                      3
                      A                      A                      A
 Frequencies --     17.8638                29.1157                32.0734
 Red. masses --      7.3656                10.3085                 9.6144
 Frc consts  --      0.0014                 0.0051                 0.0058
 IR Inten    --      0.0271                 1.2854                 0.6591

                      4                      5                      6
                      A                      A                      A
 Frequencies --     47.0821                51.2143                67.4458
 Red. masses --      4.8549                12.2000                 6.8068
 Frc consts  --      0.0063                 0.0189                 0.0182
 IR Inten    --      0.2867                 1.0170                 1.4916

                      7                      8                      9
                      A                      A                      A
 Frequencies --     69.2939               114.9371               143.5780
 Red. masses --      5.0854                 3.0032                 1.5186
 Frc consts  --      0.0144                 0.0234                 0.0184
 IR Inten    --      0.0129                 2.1427                 0.5685

                     10                     11                     12
                      A                      A                      A
 Frequencies --    149.1178               160.5404               186.0328
 Red. masses --      7.3351                 4.0523                 3.9947
 Frc consts  --      0.0961                 0.0615                 0.0815
 IR Inten    --      0.8918                 0.0778                 1.8561

                     13                     14                     15
                      A                      A                      A
 Frequencies --    199.6164               232.1386               254.7695
 Red. masses --     15.4764                 1.1802                 6.2221
 Frc consts  --      0.3633                 0.0375                 0.2379
 IR Inten    --      2.5623                 0.8698                 3.0547

                     16                     17                     18
                      A                      A                      A
 Frequencies --    270.8875               286.3478               307.7000
 Red. masses --      4.4323                 4.8732                 5.2220
 Frc consts  --      0.1916                 0.2354                 0.2913
 IR Inten    --      4.7038                 0.3356                 0.9925

                     19                     20                     21
                      A                      A                      A
 Frequencies --    330.7794               346.5868               377.3132
 Red. masses --     15.9903                 6.5576                 4.8911
 Frc consts  --      1.0308                 0.4641                 0.4103
 IR Inten    --      0.5649                 3.0225                 0.0548

                     22                     23                     24
                      A                      A                      A
 Frequencies --    392.2456               425.2678               428.0027
 Red. masses --      5.6351                 2.9631                 6.0668
 Frc consts  --      0.5108                 0.3157                 0.6548
 IR Inten    --      4.4309                 0.2026                 6.7523

                     25                     26                     27
                      A                      A                      A
 Frequencies --    467.5027               499.3010               528.2151
 Red. masses --      6.3292                 6.5499                 7.6256
 Frc consts  --      0.8150                 0.9621                 1.2536
 IR Inten    --      3.1151                30.2676                 1.0579

                     28                     29                     30
                      A                      A                      A
 Frequencies --    538.8099               554.3595               573.6819
 Red. masses --      5.0164                 8.0846                 8.2689
 Frc consts  --      0.8581                 1.4638                 1.6034
 IR Inten    --      2.0433                 7.3856                 3.2959

                     31                     32                     33
                      A                      A                      A
 Frequencies --    581.3266               605.0210               628.9695
 Red. masses --      7.3767                 5.1785                 4.6155
 Frc consts  --      1.4688                 1.1168                 1.0758
 IR Inten    --      4.4391                55.1678                 3.5477

                     34                     35                     36
                      A                      A                      A
 Frequencies --    645.1576               661.9264               733.8197
 Red. masses --      6.1783                 7.5562                 3.6137
 Frc consts  --      1.5151                 1.9506                 1.1465
 IR Inten    --      4.3042               132.3451                 9.3758

                     37                     38                     39
                      A                      A                      A
 Frequencies --    743.6159               790.6042               803.1403
 Red. masses --      5.6211                10.2338                 4.1794
 Frc consts  --      1.8313                 3.7688                 1.5883
 IR Inten    --     20.7779                23.7064                20.9837

                     40                     41                     42
                      A                      A                      A
 Frequencies --    824.3617               873.4728               893.4540
 Red. masses --      5.9151                 1.2459                 8.7137
 Frc consts  --      2.3684                 0.5601                 4.0982
 IR Inten    --     74.5745                 0.1698               133.7826

                     43                     44                     45
                      A                      A                      A
 Frequencies --    903.4552               938.7622               999.4553
 Red. masses --      1.9118                 2.7327                 2.2605
 Frc consts  --      0.9194                 1.4189                 1.3304
 IR Inten    --     25.9833               113.8261               185.3311

                     46                     47                     48
                      A                      A                      A
 Frequencies --   1020.4665              1028.3461              1030.6189
 Red. masses --      1.4112                 1.4511                 2.4273
 Frc consts  --      0.8658                 0.9041                 1.5190
 IR Inten    --      0.6173                 2.6822                 8.6072

                     49                     50                     51
                      A                      A                      A
 Frequencies --   1042.6427              1054.0552              1085.3495
 Red. masses --      1.5901                 1.5083                 1.9580
 Frc consts  --      1.0185                 0.9874                 1.3589
 IR Inten    --      0.7071                 0.8113                97.1881

                     52                     53                     54
                      A                      A                      A
 Frequencies --   1115.3687              1138.0202              1144.3938
 Red. masses --      1.2961                 2.4042                 2.1124
 Frc consts  --      0.9500                 1.8345                 1.6299
 IR Inten    --     12.6926                46.3441                27.2693

                     55                     56                     57
                      A                      A                      A
 Frequencies --   1189.9255              1194.4381              1202.7079
 Red. masses --      2.1108                 3.0795                 4.9607
 Frc consts  --      1.7609                 2.5886                 4.2278
 IR Inten    --     82.4494               109.4531               168.8648

                     58                     59                     60
                      A                      A                      A
 Frequencies --   1290.4563              1300.0873              1304.2209
 Red. masses --     12.3588                 1.3351                11.0205
 Frc consts  --     12.1259                 1.3296                11.0447
 IR Inten    --    171.1019                 7.6489                96.1174

                     61                     62                     63
                      A                      A                      A
 Frequencies --   1311.6232              1344.8681              1365.4409
 Red. masses --     13.1397                 3.2795                 7.1241
 Frc consts  --     13.3184                 3.4948                 7.8257
 IR Inten    --    327.6677                 4.7983                13.3968

                     64                     65                     66
                      A                      A                      A
 Frequencies --   1394.6331              1409.7447              1448.1497
 Red. masses --      1.3018                 1.5135                 1.2266
 Frc consts  --      1.4918                 1.7722                 1.5155
 IR Inten    --      8.7084                12.6738                23.5364

                     67                     68                     69
                      A                      A                      A
 Frequencies --   1452.0655              1455.2161              1461.5477
 Red. masses --      2.1814                 1.1081                 1.1019
 Frc consts  --      2.7100                 1.3826                 1.3868
 IR Inten    --      9.5865                 0.4423                 1.7504

                     70                     71                     72
                      A                      A                      A
 Frequencies --   1465.6838              1466.7348              1484.5152
 Red. masses --      3.5444                 1.4558                 7.5927
 Frc consts  --      4.4861                 1.8453                 9.8586
 IR Inten    --    349.4261                62.3437               205.7618

                     73                     74                     75
                      A                      A                      A
 Frequencies --   1546.1280              1656.2647              1693.3922
 Red. masses --      3.0271                10.5043                 6.8212
 Frc consts  --      4.2635                16.9776                11.5246
 IR Inten    --      8.6467               173.3644                20.3959

                     76                     77                     78
                      A                      A                      A
 Frequencies --   1711.7728              1796.2203              3066.0756
 Red. masses --     10.4229                 9.6417                 1.0393
 Frc consts  --     17.9941                18.3283                 5.7563
 IR Inten    --    175.4730                27.7396                 0.5015

                     79                     80                     81
                      A                      A                      A
 Frequencies --   3066.6294              3146.0596              3146.4660
 Red. masses --      1.0394                 1.1020                 1.1008
 Frc consts  --      5.7590                 6.4266                 6.4209
 IR Inten    --      7.8483                 2.9452                 3.0803

                     82                     83                     84
                      A                      A                      A
 Frequencies --   3187.3647              3199.1662              3223.3685
 Red. masses --      1.1041                 1.1027                 1.0931
 Frc consts  --      6.6088                 6.6494                 6.6914
 IR Inten    --      2.0579                 2.1811                 0.2942

                     85                     86                     87
                      A                      A                      A
 Frequencies --   3223.7668              3261.2135              3263.0992
 Red. masses --      1.0927                 1.0954                 1.0954
 Frc consts  --      6.6906                 6.8640                 6.8718
 IR Inten    --      1.1784                 6.8346                 6.5391

 - Thermochemistry -
 -------------------
 Temperature   298.150 Kelvin.  Pressure   1.00000 Atm.
 Atom     1 has atomic number  6 and mass  12.00000

 Molecular mass:   325.02318 amu.
 Principal axes and moments of inertia in atomic units:
                           1         2         3
     Eigenvalues --  2062.28972********************
           X            1.00000   0.00170  -0.00099
           Y           -0.00171   0.99996  -0.00826
           Z            0.00097   0.00826   0.99997
 This molecule is an asymmetric top.
 Rotational symmetry number  1.
 Warning -- assumption of classical behavior for rotation
           may cause significant error
 Rotational temperatures (Kelvin)      0.04200     0.00520     0.00499
 Rotational constants (GHZ):           0.87512     0.10838     0.10394
 Zero-point vibrational energy     562823.1 (Joules/Mol)
                                  134.51794 (Kcal/Mol)
 Warning -- explicit consideration of  32 degrees of freedom as
           vibrations may cause significant error
 Vibrational temperatures:     25.70    41.89    46.15    67.74    73.69
          (Kelvin)             97.04    99.70   165.37   206.58   214.55
                              230.98   267.66   287.20   334.00   366.56
                              389.75   411.99   442.71   475.92   498.66
                              542.87   564.35   611.87   615.80   672.63
                              718.38   759.98   775.23   797.60   825.40
                              836.40   870.49   904.95   928.24   952.36
                             1055.80  1069.90  1137.50  1155.54  1186.07
                             1256.73  1285.48  1299.87  1350.67  1437.99
                             1468.22  1479.56  1482.83  1500.13  1516.55
                             1561.58  1604.77  1637.36  1646.53  1712.04
                             1718.53  1730.43  1856.68  1870.54  1876.48
                             1887.13  1934.97  1964.56  2006.57  2028.31
                             2083.56  2089.20  2093.73  2102.84  2108.79
                             2110.30  2135.89  2224.53  2383.00  2436.41
                             2462.86  2584.36  4411.40  4412.20  4526.48
                             4527.06  4585.91  4602.89  4637.71  4638.28
                             4692.16  4694.87

 Zero-point correction=                           0.214368 (Hartree/Particle)
 Thermal correction to Energy=                    0.234250
 Thermal correction to Enthalpy=                  0.235195
 Thermal correction to Gibbs Free Energy=         0.162571
 Sum of electronic and zero-point Energies=          -1553.003336
 Sum of electronic and thermal Energies=             -1552.983453
 Sum of electronic and thermal Enthalpies=           -1552.982509
 Sum of electronic and thermal Free Energies=        -1553.055133

                     E (Thermal)             CV                S
                      KCal/Mol        Cal/Mol-Kelvin    Cal/Mol-Kelvin
 Total                  146.994             71.891            152.850
 Electronic               0.000              0.000              0.000
 Translational            0.889              2.981             43.232
 Rotational               0.889              2.981             34.743
 Vibrational            145.217             65.929             74.875
 Vibration     1          0.593              1.986              6.859
 Vibration     2          0.593              1.984              5.889
 Vibration     3          0.594              1.983              5.697
 Vibration     4          0.595              1.979              4.936
 Vibration     5          0.595              1.977              4.770
 Vibration     6          0.598              1.970              4.227
 Vibration     7          0.598              1.969              4.173
 Vibration     8          0.608              1.937              3.184
 Vibration     9          0.616              1.910              2.756
 Vibration    10          0.618              1.904              2.683
 Vibration    11          0.622              1.891              2.543
 Vibration    12          0.632              1.859              2.267
 Vibration    13          0.638              1.840              2.137
 Vibration    14          0.653              1.792              1.862
 Vibration    15          0.665              1.755              1.697
 Vibration    16          0.675              1.727              1.591
 Vibration    17          0.684              1.699              1.495
 Vibration    18          0.698              1.659              1.375
 Vibration    19          0.713              1.614              1.256
 Vibration    20          0.725              1.582              1.182
 Vibration    21          0.748              1.518              1.050
 Vibration    22          0.760              1.487              0.992
 Vibration    23          0.787              1.415              0.874
 Vibration    24          0.790              1.409              0.865
 Vibration    25          0.825              1.322              0.745
 Vibration    26          0.855              1.252              0.660
 Vibration    27          0.883              1.188              0.591
 Vibration    28          0.894              1.164              0.568
 Vibration    29          0.910              1.130              0.535
 Vibration    30          0.930              1.088              0.497
 Vibration    31          0.938              1.072              0.483
 Vibration    32          0.964              1.021              0.441

                           ! Non-Optimized Parameters !
 Normal termination of Gaussian 16 at Fri Dec 31 14:08:01 2021.
