 Gaussian 16, Revision C.01,
 Gaussian 16:  ES64L-G16RevC.01  3-Jul-2019

 ------------------------------------------------------
 #N M062X/gen OPT FREQ=NoRaman Integral(Grid=UltraFine)
 ------------------------------------------------------

 Z-isomer - CH: def2svp - O25 O26 O31 SF: def2tzvp - N: def2tzvpd - O12
  O13: def2tzvpd
 ----------------------------------------------------------------------
 Symbolic Z-matrix:
 Charge =  0 Multiplicity = 1

 SCF Done:  E(RM062X) =  -1553.11728285     A.U. after   16 cycles
 SCF Done:  E(RM062X) =  -1553.16049215     A.U. after   15 cycles
 SCF Done:  E(RM062X) =  -1553.19149794     A.U. after   14 cycles
 SCF Done:  E(RM062X) =  -1553.20047065     A.U. after   17 cycles
 SCF Done:  E(RM062X) =  -1553.20352687     A.U. after   15 cycles
 SCF Done:  E(RM062X) =  -1553.20540888     A.U. after   17 cycles
 SCF Done:  E(RM062X) =  -1553.21241622     A.U. after   14 cycles
 SCF Done:  E(RM062X) =  -1553.21346617     A.U. after   16 cycles
 SCF Done:  E(RM062X) =  -1553.20973445     A.U. after   14 cycles
 SCF Done:  E(RM062X) =  -1553.21356343     A.U. after   15 cycles
 SCF Done:  E(RM062X) =  -1553.21637447     A.U. after   14 cycles
 SCF Done:  E(RM062X) =  -1553.21637820     A.U. after   12 cycles
 SCF Done:  E(RM062X) =  -1553.21637611     A.U. after   12 cycles
 SCF Done:  E(RM062X) =  -1553.21638397     A.U. after   12 cycles
 SCF Done:  E(RM062X) =  -1553.21638312     A.U. after   12 cycles
 SCF Done:  E(RM062X) =  -1553.21638883     A.U. after   12 cycles
 SCF Done:  E(RM062X) =  -1553.21638889     A.U. after   12 cycles
 SCF Done:  E(RM062X) =  -1553.21638951     A.U. after   10 cycles
 SCF Done:  E(RM062X) =  -1553.21638953     A.U. after    9 cycles
 Optimization completed.
    -- Stationary point found.
 Normal termination of Gaussian 16 at Fri Dec 31 13:46:55 2021.

 ------------------------------------------------------------------
 #N Geom=AllCheck Guess=TCheck SCRF=Check GenChk RM062X/ChkBas Freq
 ------------------------------------------------------------------

 ----------------------------------------------------------------------
 Z-isomer - CH: def2svp - O25 O26 O31 SF: def2tzvp - N: def2tzvpd - O12
  O13: def2tzvpd
 ----------------------------------------------------------------------
 Charge =  0 Multiplicity = 1

                         Standard orientation:
 ---------------------------------------------------------------------
 Center     Atomic      Atomic             Coordinates (Angstroms)
 Number     Number       Type             X           Y           Z
 ---------------------------------------------------------------------
      1          6           0       -2.644641    0.080433   -1.277848
      2          6           0       -3.253381   -0.205415   -0.062247
      3          6           0       -2.784258    0.293864    1.146052
      4          6           0       -1.663182    1.117192    1.129659
      5          6           0       -1.021918    1.423319   -0.077687
      6          6           0       -1.521664    0.899991   -1.277222
      7          1           0       -3.050350   -0.341264   -2.195507
      8          1           0       -3.291684    0.028923    2.071720
      9          1           0       -1.262875    1.503524    2.068378
     10          1           0       -1.015781    1.131302   -2.215456
     11          7           0       -4.446312   -1.075266   -0.054262
     12          8           0       -4.840292   -1.493095   -1.118613
     13          8           0       -4.957526   -1.312707    1.015794
     14          6           0        0.189436    2.296028   -0.074169
     15          6           0        1.383269    1.790885   -0.403957
     16          6           0        2.728564    2.427664   -0.456865
     17          1           0        2.667123    3.514393   -0.345757
     18          1           0        3.366358    2.026619    0.345602
     19          1           0        3.212278    2.196358   -1.416616
     20          6           0       -0.025976    3.725013    0.338963
     21          1           0       -0.752139    4.203821   -0.334400
     22          1           0       -0.456891    3.759656    1.350847
     23          1           0        0.896816    4.314562    0.340100
     24         16           0        1.405961   -0.713510    0.313822
     25          8           0        0.444395   -1.683196   -0.054602
     26          8           0        1.475081   -0.147189    1.613719
     27          6           0        3.054002   -1.453102   -0.044795
     28          9           0        3.096852   -1.891573   -1.291532
     29          9           0        3.254826   -2.460072    0.788582
     30          9           0        4.003080   -0.541070    0.130095
     31          8           0        1.438547    0.419229   -0.780526
 ---------------------------------------------------------------------

 SCF Done:  E(RM062X) =  -1553.21638953     A.U. after    1 cycles

 The electronic state is 1-A.
 Alpha  occ. eigenvalues --  -90.15482 -25.32435 -25.32168 -25.32157 -19.72456
 Alpha  occ. eigenvalues --  -19.66756 -19.66517 -19.66513 -19.66414 -15.00159
 Alpha  occ. eigenvalues --  -10.86170 -10.65796 -10.62818 -10.60331 -10.60173
 Alpha  occ. eigenvalues --  -10.59363 -10.59314 -10.59155 -10.59077 -10.58670
 Alpha  occ. eigenvalues --  -10.58489  -8.48187  -6.40455  -6.40274  -6.40197
 Alpha  occ. eigenvalues --   -1.51373  -1.42188  -1.42106  -1.37735  -1.32513
 Alpha  occ. eigenvalues --   -1.21882  -1.19007  -1.18424  -1.00283  -0.95662
 Alpha  occ. eigenvalues --   -0.90927  -0.88348  -0.86938  -0.85540  -0.81396
 Alpha  occ. eigenvalues --   -0.79503  -0.76589  -0.74066  -0.73881  -0.73029
 Alpha  occ. eigenvalues --   -0.72159  -0.68799  -0.65902  -0.65208  -0.63424
 Alpha  occ. eigenvalues --   -0.62717  -0.62046  -0.61268  -0.61086  -0.60448
 Alpha  occ. eigenvalues --   -0.60165  -0.57775  -0.57728  -0.56614  -0.55885
 Alpha  occ. eigenvalues --   -0.55444  -0.55076  -0.54127  -0.52362  -0.52242
 Alpha  occ. eigenvalues --   -0.51716  -0.50188  -0.49477  -0.48970  -0.48203
 Alpha  occ. eigenvalues --   -0.46785  -0.45897  -0.45023  -0.43991  -0.43902
 Alpha  occ. eigenvalues --   -0.42723  -0.41963  -0.39491  -0.38738  -0.38702
 Alpha  occ. eigenvalues --   -0.35431  -0.33981  -0.32292
 Alpha virt. eigenvalues --   -0.05909  -0.00684   0.00860   0.03684   0.05210
 Alpha virt. eigenvalues --    0.05954   0.06846   0.07123   0.08208   0.08659
 Alpha virt. eigenvalues --    0.09188   0.09812   0.10496   0.10771   0.11301

 Mulliken charges:
               1
     1  C    0.044097
     2  C    0.055727
     3  C    0.038840
     4  C    0.024112
     5  C   -0.057349
     6  C    0.043933
     7  H    0.068868
     8  H    0.069003
     9  H    0.034225
    10  H    0.027623
    11  N    0.892180
    12  O   -0.627751
    13  O   -0.627154
    14  C   -0.159886
    15  C    0.064241
    16  C    0.047035
    17  H    0.051078
    18  H    0.085523
    19  H    0.069882
    20  C    0.039513
    21  H    0.066060
    22  H    0.063789
    23  H    0.046503
    24  S    0.729145
    25  O   -0.388700
    26  O   -0.398637
    27  C    0.705631
    28  F   -0.204708
    29  F   -0.205551
    30  F   -0.223844
    31  O   -0.373429
 Sum of Mulliken charges =  -0.00000

 Dipole moment (field-independent basis, Debye):
    X=              4.4081    Y=              6.1061    Z=             -0.8083  Tot=              7.5742
 Quadrupole moment (field-independent basis, Debye-Ang):
   XX=           -145.7650   YY=           -120.3681   ZZ=           -124.6783
   XY=             -6.7753   XZ=             -2.8361   YZ=              0.0839

  Exact polarizability:     199.006      28.368     152.446      -6.404       5.646     143.364
 Approx polarizability:     216.616      32.029     183.183      -8.943      12.014     220.967

                      1                      2                      3
                      A                      A                      A
 Frequencies --     21.8033                23.2965                33.2443
 Red. masses --     14.4618                14.2027                 6.4207
 Frc consts  --      0.0041                 0.0045                 0.0042
 IR Inten    --      0.2503                 0.1838                 0.0302

                      4                      5                      6
                      A                      A                      A
 Frequencies --     47.4665                65.8510                69.0911
 Red. masses --     12.7441                 6.4827                 5.6064
 Frc consts  --      0.0169                 0.0166                 0.0158
 IR Inten    --      0.4149                 0.3222                 0.3215

                      7                      8                      9
                      A                      A                      A
 Frequencies --     75.9235               111.5947               121.4917
 Red. masses --      4.2472                 7.5189                 3.8704
 Frc consts  --      0.0144                 0.0552                 0.0337
 IR Inten    --      0.0070                 0.8960                 3.8709

                     10                     11                     12
                      A                      A                      A
 Frequencies --    151.2297               169.1812               191.9276
 Red. masses --      1.0535                 5.8725                 1.7570
 Frc consts  --      0.0142                 0.0990                 0.0381
 IR Inten    --      0.4436                 0.3640                 0.4010

                     13                     14                     15
                      A                      A                      A
 Frequencies --    201.2509               203.3890               240.4043
 Red. masses --      2.2161                10.5839                 4.1467
 Frc consts  --      0.0529                 0.2580                 0.1412
 IR Inten    --      1.4713                 2.8006                 1.5451

                     16                     17                     18
                      A                      A                      A
 Frequencies --    269.9179               285.2395               311.4151
 Red. masses --      7.1777                 7.5322                 5.2705
 Frc consts  --      0.3081                 0.3611                 0.3012
 IR Inten    --      4.7117                 1.3415                 0.3648

                     19                     20                     21
                      A                      A                      A
 Frequencies --    331.4507               344.2284               365.1785
 Red. masses --     15.9982                 6.1440                 4.4894
 Frc consts  --      1.0355                 0.4289                 0.3527
 IR Inten    --      0.5920                 2.6629                 0.8807

                     22                     23                     24
                      A                      A                      A
 Frequencies --    398.7408               419.2652               421.0698
 Red. masses --      7.0589                 4.0387                 3.1590
 Frc consts  --      0.6613                 0.4183                 0.3300
 IR Inten    --      2.0994                 2.8414                 1.0451

                     25                     26                     27
                      A                      A                      A
 Frequencies --    463.4574               493.3100               525.2189
 Red. masses --      6.0533                 7.1328                 8.5737
 Frc consts  --      0.7661                 1.0227                 1.3935
 IR Inten    --      5.6092                22.8068                 8.6628

                     28                     29                     30
                      A                      A                      A
 Frequencies --    538.3043               552.8276               562.6889
 Red. masses --      7.3603                 3.9706                 8.5509
 Frc consts  --      1.2566                 0.7150                 1.5951
 IR Inten    --      4.3329                 4.7746                 2.0050

                     31                     32                     33
                      A                      A                      A
 Frequencies --    576.3387               608.4969               616.8319
 Red. masses --     11.2952                 5.4467                 6.9710
 Frc consts  --      2.2105                 1.1882                 1.5627
 IR Inten    --      4.7264                22.6901                80.0226

                     34                     35                     36
                      A                      A                      A
 Frequencies --    644.4892               677.5319               733.1318
 Red. masses --      6.7442                 5.5085                 3.7895
 Frc consts  --      1.6505                 1.4898                 1.2000
 IR Inten    --     17.3340                86.4023                21.7775

                     37                     38                     39
                      A                      A                      A
 Frequencies --    741.5325               790.0511               803.3490
 Red. masses --      5.1436                10.1699                 3.9933
 Frc consts  --      1.6664                 3.7400                 1.5184
 IR Inten    --     10.3962                17.0590                17.3906

                     40                     41                     42
                      A                      A                      A
 Frequencies --    818.7250               871.7066               890.2882
 Red. masses --      5.0116                 1.2476                 7.3018
 Frc consts  --      1.9793                 0.5585                 3.4099
 IR Inten    --     65.9627                 0.2486                81.4775

                     43                     44                     45
                      A                      A                      A
 Frequencies --    901.9188               918.1126              1008.4110
 Red. masses --      1.9503                 3.9523                 1.9077
 Frc consts  --      0.9347                 1.9629                 1.1429
 IR Inten    --     32.7062               121.3451               107.9244

                     46                     47                     48
                      A                      A                      A
 Frequencies --   1019.1731              1026.8936              1030.8339
 Red. masses --      1.4205                 1.3721                 2.6638
 Frc consts  --      0.8693                 0.8525                 1.6677
 IR Inten    --      1.1514                 0.5258                 7.6294

                     49                     50                     51
                      A                      A                      A
 Frequencies --   1033.0395              1059.9576              1088.0623
 Red. masses --      1.4849                 1.6183                 1.9522
 Frc consts  --      0.9336                 1.0713                 1.3617
 IR Inten    --      4.0543                 0.8804                 6.5408

                     52                     53                     54
                      A                      A                      A
 Frequencies --   1116.8832              1129.7542              1143.9623
 Red. masses --      1.2701                 2.8417                 2.0560
 Frc consts  --      0.9334                 2.1370                 1.5853
 IR Inten    --     14.1225               119.0219                34.9668

                     55                     56                     57
                      A                      A                      A
 Frequencies --   1192.0955              1194.4095              1207.5386
 Red. masses --      1.4411                11.2728                 4.1046
 Frc consts  --      1.2066                 9.4752                 3.5263
 IR Inten    --      2.9022               196.3089                65.0891

                     58                     59                     60
                      A                      A                      A
 Frequencies --   1289.3934              1300.6584              1301.6685
 Red. masses --     12.1628                 1.3195                12.1676
 Frc consts  --     11.9139                 1.3152                12.1466
 IR Inten    --    154.9470                 2.8869                89.2358

                     61                     62                     63
                      A                      A                      A
 Frequencies --   1309.8789              1334.3518              1364.7223
 Red. masses --     13.2670                 3.2320                 7.6802
 Frc consts  --     13.4118                 3.3905                 8.4277
 IR Inten    --    304.5830                 2.9783                15.6996

                     64                     65                     66
                      A                      A                      A
 Frequencies --   1399.1861              1408.7501              1447.2310
 Red. masses --      1.5319                 1.3745                 1.0664
 Frc consts  --      1.7670                 1.6072                 1.3160
 IR Inten    --      0.6625                17.0544                 4.8081

                     67                     68                     69
                      A                      A                      A
 Frequencies --   1449.4420              1453.1974              1458.9394
 Red. masses --      1.2984                 1.7754                 1.1635
 Frc consts  --      1.6071                 2.2090                 1.4591
 IR Inten    --     20.9947                 6.0061                 8.7145

                     70                     71                     72
                      A                      A                      A
 Frequencies --   1465.4165              1466.9388              1480.6521
 Red. masses --      1.0735                14.1154                15.9214
 Frc consts  --      1.3582                17.8964                20.5654
 IR Inten    --      6.0647               309.2412               221.3087

                     73                     74                     75
                      A                      A                      A
 Frequencies --   1545.0652              1657.9235              1695.1516
 Red. masses --      2.9909                10.6564                 6.8503
 Frc consts  --      4.2067                17.2580                11.5979
 IR Inten    --      9.5081               177.5214                14.9932

                     76                     77                     78
                      A                      A                      A
 Frequencies --   1713.2696              1804.3786              3069.0332
 Red. masses --     10.3494                 9.4510                 1.0389
 Frc consts  --     17.8985                18.1293                 5.7652
 IR Inten    --    170.4512                16.6145                 8.7421

                     79                     80                     81
                      A                      A                      A
 Frequencies --   3072.3447              3143.6548              3150.6043
 Red. masses --      1.0403                 1.1024                 1.1030
 Frc consts  --      5.7854                 6.4190                 6.4505
 IR Inten    --      4.4683                 3.4988                 1.4534

                     82                     83                     84
                      A                      A                      A
 Frequencies --   3195.7768              3213.4039              3226.0027
 Red. masses --      1.1032                 1.0997                 1.0928
 Frc consts  --      6.6383                 6.6905                 6.7004
 IR Inten    --      6.2892                 8.0354                 0.5717

                     85                     86                     87
                      A                      A                      A
 Frequencies --   3230.4212              3263.5315              3264.9248
 Red. masses --      1.0928                 1.0954                 1.0955
 Frc consts  --      6.7194                 6.8741                 6.8805
 IR Inten    --      0.5507                 6.6763                 6.4649

 - Thermochemistry -
 -------------------
 Temperature   298.150 Kelvin.  Pressure   1.00000 Atm.
 Atom     1 has atomic number  6 and mass  12.00000

 Molecular mass:   325.02318 amu.
 Principal axes and moments of inertia in atomic units:
                           1         2         3
     Eigenvalues --  3766.204369845.36423**********
           X            0.99978   0.02068  -0.00164
           Y           -0.02067   0.99978   0.00411
           Z            0.00172  -0.00407   0.99999
 This molecule is an asymmetric top.
 Rotational symmetry number  1.
 Warning -- assumption of classical behavior for rotation
           may cause significant error
 Rotational temperatures (Kelvin)      0.02300     0.00880     0.00725
 Rotational constants (GHZ):           0.47919     0.18331     0.15115
 Zero-point vibrational energy     562417.7 (Joules/Mol)
                                  134.42105 (Kcal/Mol)
 Warning -- explicit consideration of  33 degrees of freedom as
           vibrations may cause significant error
 Vibrational temperatures:     31.37    33.52    47.83    68.29    94.74
          (Kelvin)             99.41   109.24   160.56   174.80   217.59
                              243.41   276.14   289.56   292.63   345.89
                              388.35   410.40   448.06   476.88   495.27
                              525.41   573.70   603.23   605.83   666.81
                              709.76   755.67   774.50   795.40   809.58
                              829.22   875.49   887.48   927.28   974.82
                             1054.81  1066.90  1136.71  1155.84  1177.96
                             1254.19  1280.93  1297.66  1320.96  1450.88
                             1466.36  1477.47  1483.14  1486.31  1525.04
                             1565.48  1606.95  1625.46  1645.91  1715.16
                             1718.49  1737.38  1855.15  1871.36  1872.81
                             1884.62  1919.83  1963.53  2013.12  2026.88
                             2082.24  2085.42  2090.83  2099.09  2108.41
                             2110.60  2130.33  2223.00  2385.38  2438.94
                             2465.01  2596.10  4415.65  4420.42  4523.02
                             4533.02  4598.01  4623.37  4641.50  4647.86
                             4695.49  4697.50

 Zero-point correction=                           0.214214 (Hartree/Particle)
 Thermal correction to Energy=                    0.234174
 Thermal correction to Enthalpy=                  0.235118
 Thermal correction to Gibbs Free Energy=         0.162677
 Sum of electronic and zero-point Energies=          -1553.002176
 Sum of electronic and thermal Energies=             -1552.982216
 Sum of electronic and thermal Enthalpies=           -1552.981271
 Sum of electronic and thermal Free Energies=        -1553.053713

                     E (Thermal)             CV                S
                      KCal/Mol        Cal/Mol-Kelvin    Cal/Mol-Kelvin
 Total                  146.946             72.099            152.466
 Electronic               0.000              0.000              0.000
 Translational            0.889              2.981             43.232
 Rotational               0.889              2.981             34.448
 Vibrational            145.169             66.137             74.787
 Vibration     1          0.593              1.985              6.463
 Vibration     2          0.593              1.985              6.331
 Vibration     3          0.594              1.983              5.626
 Vibration     4          0.595              1.979              4.920
 Vibration     5          0.597              1.971              4.274
 Vibration     6          0.598              1.969              4.179
 Vibration     7          0.599              1.965              3.994
 Vibration     8          0.607              1.940              3.241
 Vibration     9          0.609              1.931              3.077
 Vibration    10          0.619              1.901              2.657
 Vibration    11          0.625              1.880              2.445
 Vibration    12          0.634              1.851              2.209
 Vibration    13          0.638              1.838              2.122
 Vibration    14          0.639              1.835              2.102
 Vibration    15          0.657              1.779              1.800
 Vibration    16          0.674              1.729              1.597
 Vibration    17          0.683              1.701              1.502
 Vibration    18          0.700              1.652              1.355
 Vibration    19          0.714              1.613              1.253
 Vibration    20          0.723              1.587              1.192
 Vibration    21          0.738              1.544              1.100
 Vibration    22          0.765              1.473              0.967
 Vibration    23          0.782              1.428              0.894
 Vibration    24          0.784              1.424              0.888
 Vibration    25          0.821              1.331              0.756
 Vibration    26          0.849              1.265              0.675
 Vibration    27          0.880              1.194              0.598
 Vibration    28          0.893              1.165              0.569
 Vibration    29          0.908              1.134              0.538
 Vibration    30          0.918              1.112              0.518
 Vibration    31          0.933              1.082              0.492
 Vibration    32          0.967              1.014              0.435
 Vibration    33          0.977              0.996              0.422

 Optimization completed.
    -- Stationary point found.
 Normal termination of Gaussian 16 at Fri Dec 31 14:16:28 2021.
