 Gaussian 16, Revision C.01,
 Gaussian 16:  ES64L-G16RevC.01  3-Jul-2019

 ----------------------------------------------------------------------
 #N M062X/def2svp OPT FREQ=NoRaman temperature=273.15 Integral(Grid=Ult
 raFine)
 ----------------------------------------------------------------------

 ---
 cpd
 ---
 Symbolic Z-matrix:
 Charge =  0 Multiplicity = 1

 SCF Done:  E(RM062X) =  -193.717024481     A.U. after   16 cycles
 SCF Done:  E(RM062X) =  -193.780155348     A.U. after   13 cycles
 SCF Done:  E(RM062X) =  -193.829038570     A.U. after   14 cycles
 SCF Done:  E(RM062X) =  -193.852740366     A.U. after   13 cycles
 SCF Done:  E(RM062X) =  -193.861029263     A.U. after   13 cycles
 SCF Done:  E(RM062X) =  -193.862690542     A.U. after   12 cycles
 SCF Done:  E(RM062X) =  -193.863371821     A.U. after   12 cycles
 SCF Done:  E(RM062X) =  -193.863499231     A.U. after   11 cycles
 SCF Done:  E(RM062X) =  -193.863335519     A.U. after   11 cycles
 SCF Done:  E(RM062X) =  -193.863499181     A.U. after   11 cycles
 SCF Done:  E(RM062X) =  -193.863557839     A.U. after   10 cycles
 SCF Done:  E(RM062X) =  -193.863558072     A.U. after    7 cycles
 Optimization completed.
    -- Stationary point found.
 Normal termination of Gaussian 16 at Mon Dec 27 19:02:12 2021.

 -------------------------------------------------------------------
 #N Geom=AllCheck Guess=TCheck SCRF=Check GenChk RM062X/def2SVP Freq
 -------------------------------------------------------------------

 Structure from the checkpoint file:  "cpd.chk"
 ---
 cpd
 ---
 Charge =  0 Multiplicity = 1

                         Standard orientation:
 ---------------------------------------------------------------------
 Center     Atomic      Atomic             Coordinates (Angstroms)
 Number     Number       Type             X           Y           Z
 ---------------------------------------------------------------------
      1          6           0       -1.174594    0.292711   -0.000227
      2          6           0       -0.743422   -0.983774    0.000113
      3          6           0        0.726765   -0.996087   -0.000057
      4          6           0        1.179391    0.272961   -0.000071
      5          6           0        0.010189    1.213583    0.000023
      6          1           0       -1.371974   -1.874097    0.000421
      7          1           0        1.340201   -1.896887   -0.000323
      8          1           0        2.221240    0.590844    0.000629
      9          1           0        0.016123    1.878272   -0.881962
     10          1           0        0.015451    1.877656    0.882484
     11          1           0       -2.211011    0.627850    0.000067
 ---------------------------------------------------------------------

 SCF Done:  E(RM062X) =  -193.863558072     A.U. after    1 cycles

 The electronic state is 1-A.
 Alpha  occ. eigenvalues --  -10.55639 -10.54804 -10.54793 -10.54714 -10.54697
 Alpha  occ. eigenvalues --   -0.94959  -0.78531  -0.78380  -0.61938  -0.59781
 Alpha  occ. eigenvalues --   -0.58394  -0.50289  -0.45811  -0.43401  -0.41809
 Alpha  occ. eigenvalues --   -0.41750  -0.35807  -0.27367
 Alpha virt. eigenvalues --    0.01919   0.11387   0.12089   0.14296   0.15984
 Alpha virt. eigenvalues --    0.17501   0.17561   0.18098   0.24196   0.26665
 Alpha virt. eigenvalues --    0.37057   0.37430   0.41818   0.47058   0.48035

 Mulliken charges:
               1
     1  C   -0.105563
     2  C   -0.026121
     3  C   -0.026105
     4  C   -0.105571
     5  C    0.005000
     6  H    0.022836
     7  H    0.022829
     8  H    0.030131
     9  H    0.076210
    10  H    0.076238
    11  H    0.030115
 Sum of Mulliken charges =  -0.00000

 Dipole moment (field-independent basis, Debye):
    X=              0.0043    Y=              0.5137    Z=              0.0011  Tot=              0.5137
 Quadrupole moment (field-independent basis, Debye-Ang):
   XX=            -28.6814   YY=            -27.1032   ZZ=            -32.8264
   XY=              0.0141   XZ=             -0.0004   YZ=              0.0005

  Exact polarizability:      54.680       0.053      61.280      -0.001      -0.002      28.830
 Approx polarizability:      64.402       0.133      80.038      -0.001      -0.007      37.455

                      1                      2                      3
                      A                      A                      A
 Frequencies --    331.8428               528.5860               683.9200
 Red. masses --      1.4632                 2.3345                 1.2143
 Frc consts  --      0.0949                 0.3843                 0.3346
 IR Inten    --     10.4276                 0.0001                62.7540

                      4                      5                      6
                      A                      A                      A
 Frequencies --    733.6457               808.8292               809.5388
 Red. masses --      1.2682                 4.8772                 5.2110
 Frc consts  --      0.4022                 1.8799                 2.0121
 IR Inten    --      0.0005                 0.0342                 6.7152

                      7                      8                      9
                      A                      A                      A
 Frequencies --    910.2494               940.2087               974.0000
 Red. masses --      1.8264                 1.8653                 1.4254
 Frc consts  --      0.8916                 0.9715                 0.7967
 IR Inten    --     28.4697                13.7485                12.6403

                     10                     11                     12
                      A                      A                      A
 Frequencies --    985.8002               986.8868              1025.7003
 Red. masses --      1.3173                 1.3275                 2.0818
 Frc consts  --      0.7542                 0.7618                 1.2904
 IR Inten    --      0.0128                 0.1326                 0.0069

                     13                     14                     15
                      A                      A                      A
 Frequencies --   1094.5994              1113.5265              1118.0603
 Red. masses --      1.1195                 1.1645                 1.4052
 Frc consts  --      0.7903                 0.8508                 1.0349
 IR Inten    --      3.6829                 0.0000                 0.2300

                     16                     17                     18
                      A                      A                      A
 Frequencies --   1261.5215              1328.1393              1374.2005
 Red. masses --      1.4524                 2.3068                 1.1293
 Frc consts  --      1.3618                 2.3975                 1.2564
 IR Inten    --      1.1092                 2.2668                28.8491

                     19                     20                     21
                      A                      A                      A
 Frequencies --   1413.9142              1610.8172              1690.4431
 Red. masses --      2.0847                 6.8358                 5.8027
 Frc consts  --      2.4555                10.4504                 9.7697
 IR Inten    --      1.5369                 3.4163                 0.4848

                     22                     23                     24
                      A                      A                      A
 Frequencies --   3058.5564              3099.6800              3235.7826
 Red. masses --      1.0632                 1.1006                 1.0873
 Frc consts  --      5.8602                 6.2306                 6.7074
 IR Inten    --      2.8286                 2.6484                 2.6146

                     25                     26                     27
                      A                      A                      A
 Frequencies --   3244.3050              3261.3300              3267.1406
 Red. masses --      1.0903                 1.1035                 1.1097
 Frc consts  --      6.7614                 6.9153                 6.9789
 IR Inten    --      3.6137                 9.0985                 1.6933

 - Thermochemistry -
 -------------------
 Temperature   273.150 Kelvin.  Pressure   1.00000 Atm.
 Atom     1 has atomic number  6 and mass  12.00000

 Molecular mass:    66.04695 amu.
 Principal axes and moments of inertia in atomic units:
                           1         2         3
     Eigenvalues --   213.14494 219.24628 421.18652
           X            0.99997   0.00738  -0.00001
           Y           -0.00738   0.99997   0.00001
           Z            0.00001  -0.00001   1.00000
 This molecule is an asymmetric top.
 Rotational symmetry number  1.
 Rotational temperatures (Kelvin)      0.40636     0.39505     0.20564
 Rotational constants (GHZ):           8.46720     8.23157     4.28490
 Zero-point vibrational energy     244583.8 (Joules/Mol)
                                   58.45694 (Kcal/Mol)
 Warning -- explicit consideration of   2 degrees of freedom as
           vibrations may cause significant error
 Vibrational temperatures:    477.45   760.52   984.01  1055.55  1163.72
          (Kelvin)           1164.75  1309.65  1352.75  1401.37  1418.35
                             1419.91  1475.75  1574.88  1602.12  1608.64
                             1815.05  1910.90  1977.17  2034.31  2317.61
                             2432.17  4400.58  4459.75  4655.57  4667.83
                             4692.33  4700.69

 Zero-point correction=                           0.093157 (Hartree/Particle)
 Thermal correction to Energy=                    0.096725
 Thermal correction to Enthalpy=                  0.097590
 Thermal correction to Gibbs Free Energy=         0.069178
 Sum of electronic and zero-point Energies=           -193.770401
 Sum of electronic and thermal Energies=              -193.766833
 Sum of electronic and thermal Enthalpies=            -193.765968
 Sum of electronic and thermal Free Energies=         -193.794380

                     E (Thermal)             CV                S
                      KCal/Mol        Cal/Mol-Kelvin    Cal/Mol-Kelvin
 Total                   60.696             13.932             65.269
 Electronic               0.000              0.000              0.000
 Translational            0.814              2.981             38.046
 Rotational               0.814              2.981             24.230
 Vibrational             59.067              7.971              2.993
 Vibration     1          0.674              1.550              1.113
 Vibration     2          0.855              1.081              0.491

 Optimization completed.
    -- Stationary point found.
 Normal termination of Gaussian 16 at Mon Dec 27 19:02:38 2021.
