 Gaussian 16, Revision C.01,
 Gaussian 16:  ES64L-G16RevC.01  3-Jul-2019

 ------------------------------------------------------
 #N M062X/gen OPT FREQ=NoRaman Integral(Grid=UltraFine)
 ------------------------------------------------------

 ---------------------------------------
 Z-isomer - CH: def2svp - NOSF: def2tzvp
 ---------------------------------------
 Symbolic Z-matrix:
 Charge =  0 Multiplicity = 1

 SCF Done:  E(RM062X) =  -1553.11454960     A.U. after   15 cycles
 SCF Done:  E(RM062X) =  -1553.15775878     A.U. after   15 cycles
 SCF Done:  E(RM062X) =  -1553.18876448     A.U. after   14 cycles
 SCF Done:  E(RM062X) =  -1553.19774246     A.U. after   16 cycles
 SCF Done:  E(RM062X) =  -1553.20078136     A.U. after   15 cycles
 SCF Done:  E(RM062X) =  -1553.20266824     A.U. after   16 cycles
 SCF Done:  E(RM062X) =  -1553.20966056     A.U. after   14 cycles
 SCF Done:  E(RM062X) =  -1553.21071033     A.U. after   14 cycles
 SCF Done:  E(RM062X) =  -1553.20710114     A.U. after   15 cycles
 SCF Done:  E(RM062X) =  -1553.21077799     A.U. after   15 cycles
 SCF Done:  E(RM062X) =  -1553.21359255     A.U. after   11 cycles
 SCF Done:  E(RM062X) =  -1553.21362690     A.U. after   13 cycles
 SCF Done:  E(RM062X) =  -1553.21361654     A.U. after   12 cycles
 SCF Done:  E(RM062X) =  -1553.21363474     A.U. after   12 cycles
 SCF Done:  E(RM062X) =  -1553.21363544     A.U. after   11 cycles
 SCF Done:  E(RM062X) =  -1553.21363779     A.U. after   11 cycles
 SCF Done:  E(RM062X) =  -1553.21363820     A.U. after   11 cycles
 SCF Done:  E(RM062X) =  -1553.21363819     A.U. after    9 cycles
 SCF Done:  E(RM062X) =  -1553.21363822     A.U. after    7 cycles
 Optimization completed.
    -- Stationary point found.
 Normal termination of Gaussian 16 at Fri Dec 31 11:15:53 2021.

 ------------------------------------------------------------------
 #N Geom=AllCheck Guess=TCheck SCRF=Check GenChk RM062X/ChkBas Freq
 ------------------------------------------------------------------

 Structure from the checkpoint file:  "Z-isomer.chk"
 ---------------------------------------
 Z-isomer - CH: def2svp - NOSF: def2tzvp
 ---------------------------------------
 Charge =  0 Multiplicity = 1

                         Standard orientation:
 ---------------------------------------------------------------------
 Center     Atomic      Atomic             Coordinates (Angstroms)
 Number     Number       Type             X           Y           Z
 ---------------------------------------------------------------------
      1          6           0       -2.645173    0.082909   -1.277843
      2          6           0       -3.252931   -0.205673   -0.062178
      3          6           0       -2.781973    0.291948    1.146294
      4          6           0       -1.660895    1.115340    1.130244
      5          6           0       -1.021093    1.423741   -0.077310
      6          6           0       -1.522216    0.902557   -1.277221
      7          1           0       -3.051438   -0.336730   -2.196450
      8          1           0       -3.287879    0.025922    2.072730
      9          1           0       -1.259314    1.500061    2.069167
     10          1           0       -1.017334    1.135735   -2.215617
     11          7           0       -4.446732   -1.075331   -0.054456
     12          8           0       -4.840953   -1.491570   -1.119093
     13          8           0       -4.957005   -1.313294    1.015684
     14          6           0        0.190172    2.296538   -0.073645
     15          6           0        1.383962    1.791308   -0.403343
     16          6           0        2.729362    2.427808   -0.456215
     17          1           0        2.668228    3.514438   -0.343965
     18          1           0        3.367381    2.025728    0.345558
     19          1           0        3.212611    2.197362   -1.416412
     20          6           0       -0.025290    3.725537    0.339346
     21          1           0       -0.750990    4.204440   -0.334463
     22          1           0       -0.456852    3.760188    1.350953
     23          1           0        0.897579    4.314967    0.341048
     24         16           0        1.405937   -0.712869    0.314589
     25          8           0        0.442455   -1.681214   -0.052255
     26          8           0        1.477664   -0.146461    1.614320
     27          6           0        3.052484   -1.454644   -0.046164
     28          9           0        3.093046   -1.893480   -1.292855
     29          9           0        3.253211   -2.461675    0.787179
     30          9           0        4.002939   -0.543749    0.127192
     31          8           0        1.438954    0.419670   -0.779933
 ---------------------------------------------------------------------

 SCF Done:  E(RM062X) =  -1553.21363822     A.U. after    1 cycles

 The electronic state is 1-A.
 Alpha  occ. eigenvalues --  -90.15477 -25.32430 -25.32165 -25.32153 -19.72451
 Alpha  occ. eigenvalues --  -19.66750 -19.66405 -19.66325 -19.66322 -15.00045
 Alpha  occ. eigenvalues --  -10.86165 -10.65792 -10.62758 -10.60334 -10.60169
 Alpha  occ. eigenvalues --  -10.59376 -10.59328 -10.59156 -10.59079 -10.58667
 Alpha  occ. eigenvalues --  -10.58488  -8.48182  -6.40450  -6.40269  -6.40192
 Alpha  occ. eigenvalues --   -1.51368  -1.42184  -1.42102  -1.37632  -1.32509
 Alpha  occ. eigenvalues --   -1.21878  -1.18907  -1.18419  -1.00274  -0.95652
 Alpha  occ. eigenvalues --   -0.90903  -0.88339  -0.86932  -0.85528  -0.81387
 Alpha  occ. eigenvalues --   -0.79482  -0.76578  -0.74061  -0.73877  -0.73022
 Alpha  occ. eigenvalues --   -0.72150  -0.68747  -0.65855  -0.65196  -0.63345
 Alpha  occ. eigenvalues --   -0.62709  -0.62031  -0.61262  -0.60982  -0.60434
 Alpha  occ. eigenvalues --   -0.60157  -0.57771  -0.57723  -0.56602  -0.55877
 Alpha  occ. eigenvalues --   -0.55440  -0.55073  -0.54125  -0.52358  -0.52237
 Alpha  occ. eigenvalues --   -0.51713  -0.50185  -0.49474  -0.48969  -0.48201
 Alpha  occ. eigenvalues --   -0.46777  -0.45894  -0.45016  -0.43987  -0.43900
 Alpha  occ. eigenvalues --   -0.42718  -0.41956  -0.39367  -0.38614  -0.38561
 Alpha  occ. eigenvalues --   -0.35423  -0.33984  -0.32297
 Alpha virt. eigenvalues --   -0.05728  -0.00540   0.00997   0.03994   0.06904
 Alpha virt. eigenvalues --    0.07126   0.08897   0.09523   0.10531   0.10709
 Alpha virt. eigenvalues --    0.11837   0.12794   0.13103   0.15051   0.15834

 Mulliken charges:
               1
     1  C   -0.003965
     2  C    0.098264
     3  C   -0.009184
     4  C    0.019525
     5  C   -0.071107
     6  C    0.040062
     7  H    0.061291
     8  H    0.061554
     9  H    0.038487
    10  H    0.031420
    11  N    0.371166
    12  O   -0.324390
    13  O   -0.324500
    14  C   -0.161237
    15  C    0.064100
    16  C    0.047132
    17  H    0.051031
    18  H    0.085468
    19  H    0.069908
    20  C    0.038930
    21  H    0.066075
    22  H    0.063580
    23  H    0.046627
    24  S    0.728510
    25  O   -0.388040
    26  O   -0.398618
    27  C    0.704823
    28  F   -0.204690
    29  F   -0.205481
    30  F   -0.223800
    31  O   -0.372942
 Sum of Mulliken charges =  -0.00000

 Dipole moment (field-independent basis, Debye):
    X=              4.4129    Y=              6.1275    Z=             -0.8115  Tot=              7.5947
 Quadrupole moment (field-independent basis, Debye-Ang):
   XX=           -145.8723   YY=           -120.3347   ZZ=           -124.6647
   XY=             -6.9854   XZ=             -2.8218   YZ=              0.0597

  Exact polarizability:     193.783      27.769     148.540      -6.489       5.769     141.721
 Approx polarizability:     212.096      32.354     178.600      -9.000      12.123     218.922

                      1                      2                      3
                      A                      A                      A
 Frequencies --     22.0828                23.3772                33.0857
 Red. masses --     14.2602                14.4868                 6.5779
 Frc consts  --      0.0041                 0.0047                 0.0042
 IR Inten    --      0.2161                 0.2193                 0.0304

                      4                      5                      6
                      A                      A                      A
 Frequencies --     47.5496                64.4317                68.6107
 Red. masses --     12.7466                 6.2094                 5.7171
 Frc consts  --      0.0170                 0.0152                 0.0159
 IR Inten    --      0.4140                 0.1930                 0.4710

                      7                      8                      9
                      A                      A                      A
 Frequencies --     75.8758               111.5556               121.5416
 Red. masses --      4.2447                 7.5647                 3.8725
 Frc consts  --      0.0144                 0.0555                 0.0337
 IR Inten    --      0.0065                 0.9487                 3.8953

                     10                     11                     12
                      A                      A                      A
 Frequencies --    151.2650               169.0323               191.6192
 Red. masses --      1.0532                 5.8556                 1.6946
 Frc consts  --      0.0142                 0.0986                 0.0367
 IR Inten    --      0.4484                 0.3805                 0.3850

                     13                     14                     15
                      A                      A                      A
 Frequencies --    200.7287               203.2993               240.2295
 Red. masses --      2.2876                11.2149                 4.1611
 Frc consts  --      0.0543                 0.2731                 0.1415
 IR Inten    --      1.3701                 2.9308                 1.5881

                     16                     17                     18
                      A                      A                      A
 Frequencies --    269.7571               285.0710               311.4366
 Red. masses --      7.1349                 7.5581                 5.2621
 Frc consts  --      0.3059                 0.3619                 0.3007
 IR Inten    --      4.8194                 1.3966                 0.3572

                     19                     20                     21
                      A                      A                      A
 Frequencies --    331.4486               344.0678               364.8695
 Red. masses --     15.9549                 6.1800                 4.4755
 Frc consts  --      1.0327                 0.4311                 0.3510
 IR Inten    --      0.6001                 2.6674                 0.9023

                     22                     23                     24
                      A                      A                      A
 Frequencies --    398.6581               419.0469               420.5082
 Red. masses --      7.0507                 3.6459                 3.4603
 Frc consts  --      0.6602                 0.3772                 0.3605
 IR Inten    --      2.0393                 1.9495                 1.9084

                     25                     26                     27
                      A                      A                      A
 Frequencies --    463.5637               493.2732               525.3514
 Red. masses --      6.0722                 7.1358                 8.6097
 Frc consts  --      0.7688                 1.0230                 1.4000
 IR Inten    --      5.5651                22.6060                 8.5936

                     28                     29                     30
                      A                      A                      A
 Frequencies --    538.5246               552.8976               562.7124
 Red. masses --      7.3828                 3.9968                 8.5116
 Frc consts  --      1.2615                 0.7199                 1.5879
 IR Inten    --      4.1887                 4.6255                 1.9493

                     31                     32                     33
                      A                      A                      A
 Frequencies --    576.3457               608.5049               616.7524
 Red. masses --     11.3060                 5.4438                 6.9742
 Frc consts  --      2.2127                 1.1876                 1.5630
 IR Inten    --      4.6758                22.0280                80.0959

                     34                     35                     36
                      A                      A                      A
 Frequencies --    644.4860               677.5726               731.2873
 Red. masses --      6.7429                 5.5213                 3.6295
 Frc consts  --      1.6501                 1.4935                 1.1436
 IR Inten    --     17.4314                85.6736                23.4274

                     37                     38                     39
                      A                      A                      A
 Frequencies --    741.3660               790.1015               802.0380
 Red. masses --      5.4487                10.1553                 4.0006
 Frc consts  --      1.7645                 3.7352                 1.5162
 IR Inten    --      9.8572                16.8684                16.7939

                     40                     41                     42
                      A                      A                      A
 Frequencies --    818.7899               870.4507               890.7400
 Red. masses --      5.0099                 1.2474                 7.2698
 Frc consts  --      1.9789                 0.5568                 3.3984
 IR Inten    --     65.5622                 0.2349                84.4214

                     43                     44                     45
                      A                      A                      A
 Frequencies --    901.0417               918.2863              1008.4178
 Red. masses --      1.9523                 3.9743                 1.9059
 Frc consts  --      0.9339                 1.9746                 1.1419
 IR Inten    --     33.9439               122.5390               108.0200

                     46                     47                     48
                      A                      A                      A
 Frequencies --   1017.4487              1024.7419              1030.3381
 Red. masses --      1.4132                 1.3692                 2.6826
 Frc consts  --      0.8619                 0.8471                 1.6779
 IR Inten    --      1.4033                 0.6393                 7.1208

                     49                     50                     51
                      A                      A                      A
 Frequencies --   1032.9702              1059.9677              1088.0843
 Red. masses --      1.4795                 1.6183                 1.9534
 Frc consts  --      0.9301                 1.0712                 1.3626
 IR Inten    --      3.8307                 0.8739                 6.5164

                     52                     53                     54
                      A                      A                      A
 Frequencies --   1116.4787              1129.7527              1143.6384
 Red. masses --      1.2642                 2.8657                 2.0501
 Frc consts  --      0.9285                 2.1550                 1.5798
 IR Inten    --     13.5282               120.5047                34.7706

                     55                     56                     57
                      A                      A                      A
 Frequencies --   1191.9207              1194.5660              1207.6131
 Red. masses --      1.4447                11.2538                 4.1081
 Frc consts  --      1.2093                 9.4617                 3.5298
 IR Inten    --      3.0712               194.5639                65.3361

                     58                     59                     60
                      A                      A                      A
 Frequencies --   1289.4427              1300.4814              1301.7676
 Red. masses --     12.1599                 1.3171                12.5847
 Frc consts  --     11.9120                 1.3125                12.5649
 IR Inten    --    156.1063                 2.2577                89.0482

                     61                     62                     63
                      A                      A                      A
 Frequencies --   1309.8911              1334.5665              1365.2997
 Red. masses --     13.2718                 3.2255                 7.6205
 Frc consts  --     13.4169                 3.3848                 8.3694
 IR Inten    --    305.4428                 2.8853                15.7610

                     64                     65                     66
                      A                      A                      A
 Frequencies --   1399.2027              1408.7490              1447.2187
 Red. masses --      1.5331                 1.3751                 1.0691
 Frc consts  --      1.7684                 1.6078                 1.3192
 IR Inten    --      0.6283                17.2119                 4.4632

                     67                     68                     69
                      A                      A                      A
 Frequencies --   1449.3842              1453.0171              1458.7949
 Red. masses --      1.3248                 1.7310                 1.1591
 Frc consts  --      1.6397                 2.1532                 1.4534
 IR Inten    --     21.7493                 5.7838                 8.5685

                     70                     71                     72
                      A                      A                      A
 Frequencies --   1465.4058              1468.2303              1480.8631
 Red. masses --      1.0731                14.2815                15.9823
 Frc consts  --      1.3578                18.1389                20.6500
 IR Inten    --      5.3445               325.8262               222.5868

                     73                     74                     75
                      A                      A                      A
 Frequencies --   1545.2974              1660.7018              1695.6712
 Red. masses --      2.9915                10.3788                 6.8581
 Frc consts  --      4.2088                16.8649                11.6181
 IR Inten    --      8.9180               157.3071                14.9424

                     76                     77                     78
                      A                      A                      A
 Frequencies --   1717.3038              1804.5612              3069.0072
 Red. masses --     10.6175                 9.4526                 1.0389
 Frc consts  --     18.4488                18.1361                 5.7651
 IR Inten    --    185.9436                16.6113                 8.8239

                     79                     80                     81
                      A                      A                      A
 Frequencies --   3072.3143              3143.6177              3150.5563
 Red. masses --      1.0403                 1.1024                 1.1030
 Frc consts  --      5.7853                 6.4188                 6.4503
 IR Inten    --      4.4384                 3.5067                 1.4549

                     82                     83                     84
                      A                      A                      A
 Frequencies --   3195.7708              3213.4177              3225.9042
 Red. masses --      1.1032                 1.0997                 1.0928
 Frc consts  --      6.6382                 6.6906                 6.7000
 IR Inten    --      6.2497                 7.9863                 0.5888

                     85                     86                     87
                      A                      A                      A
 Frequencies --   3230.2846              3264.9461              3266.2739
 Red. masses --      1.0928                 1.0955                 1.0956
 Frc consts  --      6.7188                 6.8801                 6.8863
 IR Inten    --      0.5869                 6.7595                 6.5267

 - Thermochemistry -
 -------------------
 Temperature   298.150 Kelvin.  Pressure   1.00000 Atm.
 Atom     1 has atomic number  6 and mass  12.00000

 Molecular mass:   325.02318 amu.
 Principal axes and moments of inertia in atomic units:
                           1         2         3
     Eigenvalues --  3767.676379842.87551**********
           X            0.99978   0.02071  -0.00162
           Y           -0.02070   0.99978   0.00406
           Z            0.00170  -0.00402   0.99999
 This molecule is an asymmetric top.
 Rotational symmetry number  1.
 Warning -- assumption of classical behavior for rotation
           may cause significant error
 Rotational temperatures (Kelvin)      0.02299     0.00880     0.00725
 Rotational constants (GHZ):           0.47901     0.18336     0.15117
 Zero-point vibrational energy     562407.0 (Joules/Mol)
                                  134.41851 (Kcal/Mol)
 Warning -- explicit consideration of  33 degrees of freedom as
           vibrations may cause significant error
 Vibrational temperatures:     31.77    33.63    47.60    68.41    92.70
          (Kelvin)             98.72   109.17   160.50   174.87   217.64
                              243.20   275.70   288.80   292.50   345.64
                              388.12   410.15   448.09   476.88   495.04
                              524.97   573.58   602.92   605.02   666.96
                              709.71   755.86   774.82   795.50   809.62
                              829.23   875.50   887.37   927.27   974.88
                             1052.16  1066.66  1136.78  1153.95  1178.06
                             1252.38  1281.58  1296.40  1321.21  1450.89
                             1463.88  1474.38  1482.43  1486.21  1525.06
                             1565.51  1606.36  1625.46  1645.44  1714.91
                             1718.71  1737.49  1855.22  1871.10  1872.95
                             1884.64  1920.14  1964.36  2013.14  2026.88
                             2082.22  2085.34  2090.57  2098.88  2108.39
                             2112.46  2130.63  2223.34  2389.38  2439.69
                             2470.82  2596.36  4415.62  4420.38  4522.96
                             4532.95  4598.00  4623.39  4641.36  4647.66
                             4697.53  4699.44

 Zero-point correction=                           0.214210 (Hartree/Particle)
 Thermal correction to Energy=                    0.234178
 Thermal correction to Enthalpy=                  0.235123
 Thermal correction to Gibbs Free Energy=         0.162656
 Sum of electronic and zero-point Energies=          -1552.999429
 Sum of electronic and thermal Energies=             -1552.979460
 Sum of electronic and thermal Enthalpies=           -1552.978516
 Sum of electronic and thermal Free Energies=        -1553.050983

                     E (Thermal)             CV                S
                      KCal/Mol        Cal/Mol-Kelvin    Cal/Mol-Kelvin
 Total                  146.949             72.115            152.520
 Electronic               0.000              0.000              0.000
 Translational            0.889              2.981             43.232
 Rotational               0.889              2.981             34.448
 Vibrational            145.172             66.153             74.840
 Vibration     1          0.593              1.985              6.438
 Vibration     2          0.593              1.985              6.324
 Vibration     3          0.594              1.983              5.635
 Vibration     4          0.595              1.979              4.917
 Vibration     5          0.597              1.971              4.317
 Vibration     6          0.598              1.969              4.193
 Vibration     7          0.599              1.965              3.995
 Vibration     8          0.607              1.940              3.242
 Vibration     9          0.609              1.931              3.076
 Vibration    10          0.619              1.901              2.656
 Vibration    11          0.625              1.881              2.446
 Vibration    12          0.634              1.851              2.212
 Vibration    13          0.638              1.839              2.126
 Vibration    14          0.639              1.835              2.103
 Vibration    15          0.657              1.779              1.801
 Vibration    16          0.674              1.729              1.598
 Vibration    17          0.683              1.701              1.503
 Vibration    18          0.700              1.652              1.355
 Vibration    19          0.714              1.613              1.253
 Vibration    20          0.723              1.587              1.193
 Vibration    21          0.738              1.545              1.101
 Vibration    22          0.765              1.473              0.968
 Vibration    23          0.782              1.429              0.895
 Vibration    24          0.783              1.426              0.890
 Vibration    25          0.821              1.331              0.756
 Vibration    26          0.849              1.265              0.675
 Vibration    27          0.880              1.194              0.598
 Vibration    28          0.894              1.165              0.568
 Vibration    29          0.908              1.133              0.538
 Vibration    30          0.918              1.112              0.518
 Vibration    31          0.933              1.082              0.492
 Vibration    32          0.967              1.014              0.435
 Vibration    33          0.976              0.996              0.422

 Optimization completed.
    -- Stationary point found.
 Normal termination of Gaussian 16 at Fri Dec 31 11:40:17 2021.
