 Gaussian 16, Revision C.01,
 Gaussian 16:  ES64L-G16RevC.01  3-Jul-2019

 ------------------------------------------------------
 #N M062X/gen OPT FREQ=NoRaman Integral(Grid=UltraFine)
 ------------------------------------------------------

 Z-isomer - CH: def2svp - O25 O26 O31 SF: def2tzvp - N: aug-cc-pvtz - O
 12 O13: aug-cc-pvtz
 ----------------------------------------------------------------------
 Symbolic Z-matrix:
 Charge =  0 Multiplicity = 1

 SCF Done:  E(RM062X) =  -1553.11475748     A.U. after   14 cycles
 SCF Done:  E(RM062X) =  -1553.15799915     A.U. after   14 cycles
 SCF Done:  E(RM062X) =  -1553.18904027     A.U. after   13 cycles
 SCF Done:  E(RM062X) =  -1553.19801529     A.U. after   15 cycles
 SCF Done:  E(RM062X) =  -1553.20105850     A.U. after   15 cycles
 SCF Done:  E(RM062X) =  -1553.20294035     A.U. after   15 cycles
 SCF Done:  E(RM062X) =  -1553.20997296     A.U. after   13 cycles
 SCF Done:  E(RM062X) =  -1553.21102403     A.U. after   15 cycles
 SCF Done:  E(RM062X) =  -1553.20723540     A.U. after   15 cycles
 SCF Done:  E(RM062X) =  -1553.21115565     A.U. after   14 cycles
 SCF Done:  E(RM062X) =  -1553.21391836     A.U. after   12 cycles
 SCF Done:  E(RM062X) =  -1553.21392222     A.U. after   11 cycles
 SCF Done:  E(RM062X) =  -1553.21392004     A.U. after   10 cycles
 SCF Done:  E(RM062X) =  -1553.21392779     A.U. after   11 cycles
 SCF Done:  E(RM062X) =  -1553.21392966     A.U. after   10 cycles
 SCF Done:  E(RM062X) =  -1553.21393284     A.U. after   10 cycles
 SCF Done:  E(RM062X) =  -1553.21393350     A.U. after   11 cycles
 SCF Done:  E(RM062X) =  -1553.21393410     A.U. after   10 cycles
 SCF Done:  E(RM062X) =  -1553.21393420     A.U. after    8 cycles
 Optimization completed.
    -- Stationary point found.
 Normal termination of Gaussian 16 at Fri Dec 31 11:46:34 2021.

 ------------------------------------------------------------------
 #N Geom=AllCheck Guess=TCheck SCRF=Check GenChk RM062X/ChkBas Freq
 ------------------------------------------------------------------

 ----------------------------------------------------------------------
 Z-isomer - CH: def2svp - O25 O26 O31 SF: def2tzvp - N: aug-cc-pvtz - O
 12 O13: aug-cc-pvtz
 ----------------------------------------------------------------------
 Charge =  0 Multiplicity = 1

                         Standard orientation:
 ---------------------------------------------------------------------
 Center     Atomic      Atomic             Coordinates (Angstroms)
 Number     Number       Type             X           Y           Z
 ---------------------------------------------------------------------
      1          6           0       -2.645286    0.079059   -1.277861
      2          6           0       -3.254240   -0.205607   -0.062303
      3          6           0       -2.786010    0.294177    1.145926
      4          6           0       -1.664766    1.117013    1.129603
      5          6           0       -1.022923    1.422121   -0.077805
      6          6           0       -1.522159    0.898132   -1.277371
      7          1           0       -3.051126   -0.343164   -2.194974
      8          1           0       -3.294352    0.029952    2.071054
      9          1           0       -1.264797    1.504059    2.068164
     10          1           0       -1.015880    1.128992   -2.215488
     11          7           0       -4.446998   -1.075085   -0.054337
     12          8           0       -4.840381   -1.495621   -1.119175
     13          8           0       -4.960663   -1.311236    1.016173
     14          6           0        0.188149    2.295078   -0.074467
     15          6           0        1.382131    1.790384   -0.404405
     16          6           0        2.727073    2.427841   -0.457783
     17          1           0        2.665037    3.514622   -0.347562
     18          1           0        3.365118    2.027827    0.344999
     19          1           0        3.210882    2.196021   -1.417360
     20          6           0       -0.027830    3.724019    0.338520
     21          1           0       -0.754390    4.202394   -0.334744
     22          1           0       -0.458472    3.758659    1.350514
     23          1           0        0.894695    4.313976    0.339296
     24         16           0        1.407324   -0.713680    0.314258
     25          8           0        0.447035   -1.684882   -0.053596
     26          8           0        1.475844   -0.146657    1.613869
     27          6           0        3.056210   -1.451405   -0.044541
     28          9           0        3.099186   -1.890090   -1.291173
     29          9           0        3.258343   -2.457899    0.789041
     30          9           0        4.004250   -0.538223    0.129889
     31          8           0        1.437787    0.418668   -0.780593
 ---------------------------------------------------------------------

 SCF Done:  E(RM062X) =  -1553.21393420     A.U. after    1 cycles

 The electronic state is 1-A.
 Alpha  occ. eigenvalues --  -90.15508 -25.32456 -25.32189 -25.32178 -19.72483
 Alpha  occ. eigenvalues --  -19.66782 -19.66599 -19.66596 -19.66446 -15.00420
 Alpha  occ. eigenvalues --  -10.86193 -10.65823 -10.62869 -10.60385 -10.60202
 Alpha  occ. eigenvalues --  -10.59371 -10.59321 -10.59200 -10.59122 -10.58691
 Alpha  occ. eigenvalues --  -10.58513  -8.48213  -6.40481  -6.40299  -6.40223
 Alpha  occ. eigenvalues --   -1.51394  -1.42209  -1.42128  -1.37804  -1.32539
 Alpha  occ. eigenvalues --   -1.21908  -1.19080  -1.18451  -1.00351  -0.95706
 Alpha  occ. eigenvalues --   -0.90984  -0.88379  -0.86996  -0.85580  -0.81431
 Alpha  occ. eigenvalues --   -0.79566  -0.76629  -0.74091  -0.73903  -0.73058
 Alpha  occ. eigenvalues --   -0.72212  -0.68896  -0.65968  -0.65237  -0.63452
 Alpha  occ. eigenvalues --   -0.62745  -0.62080  -0.61292  -0.61176  -0.60476
 Alpha  occ. eigenvalues --   -0.60191  -0.57796  -0.57750  -0.56649  -0.55919
 Alpha  occ. eigenvalues --   -0.55464  -0.55108  -0.54170  -0.52409  -0.52278
 Alpha  occ. eigenvalues --   -0.51744  -0.50213  -0.49501  -0.48996  -0.48227
 Alpha  occ. eigenvalues --   -0.46828  -0.45924  -0.45054  -0.44028  -0.43937
 Alpha  occ. eigenvalues --   -0.42750  -0.41991  -0.39563  -0.38799  -0.38764
 Alpha  occ. eigenvalues --   -0.35473  -0.34037  -0.32324
 Alpha virt. eigenvalues --   -0.06021  -0.00703   0.00821   0.03648   0.04015
 Alpha virt. eigenvalues --    0.06115   0.06738   0.07111   0.08194   0.08448
 Alpha virt. eigenvalues --    0.09315   0.10464   0.10571   0.10876   0.11834

 Mulliken charges:
               1
     1  C    0.007887
     2  C    0.188727
     3  C    0.003954
     4  C    0.021003
     5  C   -0.062653
     6  C    0.042211
     7  H    0.057760
     8  H    0.057982
     9  H    0.034369
    10  H    0.027742
    11  N    0.631273
    12  O   -0.513938
    13  O   -0.513598
    14  C   -0.158124
    15  C    0.063399
    16  C    0.047068
    17  H    0.051146
    18  H    0.085723
    19  H    0.069941
    20  C    0.039080
    21  H    0.066299
    22  H    0.063876
    23  H    0.046636
    24  S    0.730306
    25  O   -0.389567
    26  O   -0.398470
    27  C    0.707590
    28  F   -0.204752
    29  F   -0.205681
    30  F   -0.223891
    31  O   -0.373299
 Sum of Mulliken charges =  -0.00000

 Dipole moment (field-independent basis, Debye):
    X=              4.4821    Y=              6.1435    Z=             -0.8092  Tot=              7.6477
 Quadrupole moment (field-independent basis, Debye-Ang):
   XX=           -146.2407   YY=           -120.4449   ZZ=           -124.7249
   XY=             -6.9560   XZ=             -2.8410   YZ=              0.0801

  Exact polarizability:     199.508      28.135     152.815      -6.394       5.618     143.186
 Approx polarizability:     217.365      31.822     183.902      -8.977      12.036     221.061

                      1                      2                      3
                      A                      A                      A
 Frequencies --     21.6069                23.1562                33.1166
 Red. masses --     14.5139                14.1711                 6.6679
 Frc consts  --      0.0040                 0.0045                 0.0043
 IR Inten    --      0.2577                 0.1785                 0.0308

                      4                      5                      6
                      A                      A                      A
 Frequencies --     47.3585                62.9963                68.1865
 Red. masses --     12.8117                 6.0098                 5.8080
 Frc consts  --      0.0169                 0.0141                 0.0159
 IR Inten    --      0.4153                 0.1148                 0.5457

                      7                      8                      9
                      A                      A                      A
 Frequencies --     75.9065               111.6451               121.5230
 Red. masses --      4.2313                 7.4836                 3.8667
 Frc consts  --      0.0144                 0.0550                 0.0336
 IR Inten    --      0.0066                 0.8988                 3.9082

                     10                     11                     12
                      A                      A                      A
 Frequencies --    151.0761               169.2868               192.0620
 Red. masses --      1.0538                 5.8698                 1.7814
 Frc consts  --      0.0142                 0.0991                 0.0387
 IR Inten    --      0.4482                 0.3830                 0.4045

                     13                     14                     15
                      A                      A                      A
 Frequencies --    201.5522               203.4490               240.5841
 Red. masses --      2.2371                 9.4892                 4.1388
 Frc consts  --      0.0535                 0.2314                 0.1411
 IR Inten    --      1.6434                 2.6273                 1.5587

                     16                     17                     18
                      A                      A                      A
 Frequencies --    270.1475               285.4394               311.3777
 Red. masses --      7.2218                 7.5002                 5.2739
 Frc consts  --      0.3105                 0.3600                 0.3013
 IR Inten    --      4.7466                 1.3186                 0.3635

                     19                     20                     21
                      A                      A                      A
 Frequencies --    331.4496               344.3170               365.5012
 Red. masses --     16.0285                 6.1200                 4.5026
 Frc consts  --      1.0375                 0.4275                 0.3544
 IR Inten    --      0.5863                 2.6649                 0.9016

                     22                     23                     24
                      A                      A                      A
 Frequencies --    398.8721               419.4704               421.4468
 Red. masses --      7.0702                 4.1917                 3.0631
 Frc consts  --      0.6627                 0.4346                 0.3205
 IR Inten    --      2.1169                 3.1741                 0.7434

                     25                     26                     27
                      A                      A                      A
 Frequencies --    463.4702               493.5250               524.7837
 Red. masses --      6.0401                 7.1481                 8.5345
 Frc consts  --      0.7644                 1.0258                 1.3848
 IR Inten    --      5.6557                22.9381                 8.2680

                     28                     29                     30
                      A                      A                      A
 Frequencies --    537.8942               553.0538               562.7337
 Red. masses --      7.4369                 3.9601                 8.4555
 Frc consts  --      1.2678                 0.7137                 1.5776
 IR Inten    --      4.7811                 4.8549                 2.0386

                     31                     32                     33
                      A                      A                      A
 Frequencies --    576.3637               608.6637               616.9867
 Red. masses --     11.2823                 5.4466                 6.9648
 Frc consts  --      2.2082                 1.1889                 1.5621
 IR Inten    --      4.8194                23.2523                79.5966

                     34                     35                     36
                      A                      A                      A
 Frequencies --    644.6148               677.5694               733.1877
 Red. masses --      6.7488                 5.4950                 3.7962
 Frc consts  --      1.6523                 1.4864                 1.2024
 IR Inten    --     17.1008                86.4913                22.1048

                     37                     38                     39
                      A                      A                      A
 Frequencies --    741.6823               790.0704               802.8640
 Red. masses --      5.2577                10.1918                 3.9945
 Frc consts  --      1.7040                 3.7483                 1.5170
 IR Inten    --     10.5586                17.1150                16.6051

                     40                     41                     42
                      A                      A                      A
 Frequencies --    818.7993               873.2893               889.7045
 Red. masses --      5.0207                 1.2483                 7.3663
 Frc consts  --      1.9832                 0.5609                 3.4355
 IR Inten    --     65.4404                 0.2659                81.1166

                     43                     44                     45
                      A                      A                      A
 Frequencies --    903.3551               918.0605              1008.4145
 Red. masses --      1.9259                 3.9222                 1.9086
 Frc consts  --      0.9260                 1.9477                 1.1435
 IR Inten    --     32.6703               121.5854               108.0098

                     46                     47                     48
                      A                      A                      A
 Frequencies --   1021.4730              1028.9128              1031.8796
 Red. masses --      1.4300                 1.3742                 2.5282
 Frc consts  --      0.8791                 0.8572                 1.5860
 IR Inten    --      0.8563                 0.4629                 6.5865

                     49                     50                     51
                      A                      A                      A
 Frequencies --   1033.1522              1059.9580              1088.2453
 Red. masses --      1.5328                 1.6188                 1.9575
 Frc consts  --      0.9640                 1.0716                 1.3659
 IR Inten    --      5.0366                 0.8901                 6.8597

                     52                     53                     54
                      A                      A                      A
 Frequencies --   1118.8017              1129.9411              1146.2044
 Red. masses --      1.2908                 2.7644                 2.0657
 Frc consts  --      0.9519                 2.0795                 1.5990
 IR Inten    --     16.4462               116.7079                33.4478

                     55                     56                     57
                      A                      A                      A
 Frequencies --   1192.7329              1194.3338              1207.6950
 Red. masses --      1.4370                11.3619                 4.0547
 Frc consts  --      1.2045                 9.5489                 3.4844
 IR Inten    --      2.9907               198.1897                64.3168

                     58                     59                     60
                      A                      A                      A
 Frequencies --   1289.4080              1301.6536              1302.4141
 Red. masses --     12.2315                12.1739                 1.3210
 Frc consts  --     11.9814                12.1527                 1.3202
 IR Inten    --    154.7368                91.7165                 0.6495

                     61                     62                     63
                      A                      A                      A
 Frequencies --   1309.9720              1334.6337              1364.0390
 Red. masses --     13.2435                 3.2170                 7.6610
 Frc consts  --     13.3899                 3.3762                 8.3983
 IR Inten    --    304.2241                 3.1204                15.7550

                     64                     65                     66
                      A                      A                      A
 Frequencies --   1399.2009              1408.7766              1447.2258
 Red. masses --      1.5312                 1.3752                 1.0630
 Frc consts  --      1.7662                 1.6081                 1.3117
 IR Inten    --      0.7294                16.8417                 5.1892

                     67                     68                     69
                      A                      A                      A
 Frequencies --   1449.5233              1453.3783              1459.0081
 Red. masses --      1.2636                 1.8323                 1.1821
 Frc consts  --      1.5643                 2.2803                 1.4825
 IR Inten    --     20.1591                 6.7337                11.3811

                     70                     71                     72
                      A                      A                      A
 Frequencies --   1462.2935              1465.3911              1480.5360
 Red. masses --     12.6366                 1.0731                15.8954
 Frc consts  --     15.9202                 1.3577                20.5286
 IR Inten    --    319.3440                 4.0724               218.9632

                     73                     74                     75
                      A                      A                      A
 Frequencies --   1545.5216              1654.7022              1694.9131
 Red. masses --      2.9703                10.8987                 6.8274
 Frc consts  --      4.1803                17.5818                11.5558
 IR Inten    --      9.0525               189.8504                15.5319

                     76                     77                     78
                      A                      A                      A
 Frequencies --   1709.8069              1804.3799              3069.0378
 Red. masses --     10.0916                 9.4516                 1.0389
 Frc consts  --     17.3822                18.1306                 5.7653
 IR Inten    --    152.6807                16.6676                 8.6878

                     79                     80                     81
                      A                      A                      A
 Frequencies --   3072.3710              3143.6332              3150.6473
 Red. masses --      1.0403                 1.1024                 1.1030
 Frc consts  --      5.7855                 6.4189                 6.4507
 IR Inten    --      4.4148                 3.4705                 1.4397

                     82                     83                     84
                      A                      A                      A
 Frequencies --   3195.8476              3213.4371              3226.3843
 Red. masses --      1.1032                 1.0997                 1.0928
 Frc consts  --      6.6385                 6.6906                 6.7023
 IR Inten    --      6.2430                 8.0217                 0.5493

                     85                     86                     87
                      A                      A                      A
 Frequencies --   3230.8651              3265.3873              3266.9508
 Red. masses --      1.0929                 1.0954                 1.0955
 Frc consts  --      6.7216                 6.8819                 6.8886
 IR Inten    --      0.5162                 6.9858                 6.7581

 - Thermochemistry -
 -------------------
 Temperature   298.150 Kelvin.  Pressure   1.00000 Atm.
 Atom     1 has atomic number  6 and mass  12.00000

 Molecular mass:   325.02318 amu.
 Principal axes and moments of inertia in atomic units:
                           1         2         3
     Eigenvalues --  3764.459609852.67206**********
           X            0.99979   0.02062  -0.00164
           Y           -0.02062   0.99978   0.00411
           Z            0.00173  -0.00407   0.99999
 This molecule is an asymmetric top.
 Rotational symmetry number  1.
 Warning -- assumption of classical behavior for rotation
           may cause significant error
 Rotational temperatures (Kelvin)      0.02301     0.00879     0.00725
 Rotational constants (GHZ):           0.47942     0.18317     0.15108
 Zero-point vibrational energy     562455.9 (Joules/Mol)
                                  134.43019 (Kcal/Mol)
 Warning -- explicit consideration of  33 degrees of freedom as
           vibrations may cause significant error
 Vibrational temperatures:     31.09    33.32    47.65    68.14    90.64
          (Kelvin)             98.11   109.21   160.63   174.84   217.36
                              243.57   276.33   289.99   292.72   346.15
                              388.68   410.68   448.00   476.88   495.40
                              525.87   573.89   603.52   606.37   666.83
                              710.07   755.05   773.91   795.72   809.65
                              829.26   875.73   887.71   927.46   974.87
                             1054.89  1067.12  1136.74  1155.14  1178.07
                             1256.47  1280.09  1299.73  1320.88  1450.88
                             1469.67  1480.38  1484.64  1486.48  1525.04
                             1565.74  1609.71  1625.73  1649.13  1716.08
                             1718.38  1737.60  1855.17  1872.79  1873.88
                             1884.76  1920.24  1962.55  2013.14  2026.92
                             2082.24  2085.54  2091.09  2099.19  2103.91
                             2108.37  2130.16  2223.66  2380.75  2438.60
                             2460.03  2596.10  4415.66  4420.46  4522.99
                             4533.08  4598.11  4623.42  4642.05  4648.49
                             4698.16  4700.41

 Zero-point correction=                           0.214228 (Hartree/Particle)
 Thermal correction to Energy=                    0.234193
 Thermal correction to Enthalpy=                  0.235137
 Thermal correction to Gibbs Free Energy=         0.162630
 Sum of electronic and zero-point Energies=          -1552.999706
 Sum of electronic and thermal Energies=             -1552.979741
 Sum of electronic and thermal Enthalpies=           -1552.978797
 Sum of electronic and thermal Free Energies=        -1553.051304

                     E (Thermal)             CV                S
                      KCal/Mol        Cal/Mol-Kelvin    Cal/Mol-Kelvin
 Total                  146.958             72.085            152.605
 Electronic               0.000              0.000              0.000
 Translational            0.889              2.981             43.232
 Rotational               0.889              2.981             34.448
 Vibrational            145.181             66.123             74.925
 Vibration     1          0.593              1.985              6.481
 Vibration     2          0.593              1.985              6.343
 Vibration     3          0.594              1.983              5.633
 Vibration     4          0.595              1.979              4.925
 Vibration     5          0.597              1.972              4.361
 Vibration     6          0.598              1.969              4.205
 Vibration     7          0.599              1.965              3.994
 Vibration     8          0.607              1.940              3.240
 Vibration     9          0.609              1.931              3.076
 Vibration    10          0.618              1.901              2.659
 Vibration    11          0.625              1.880              2.443
 Vibration    12          0.634              1.851              2.208
 Vibration    13          0.638              1.838              2.119
 Vibration    14          0.639              1.835              2.102
 Vibration    15          0.658              1.778              1.799
 Vibration    16          0.674              1.728              1.595
 Vibration    17          0.683              1.701              1.501
 Vibration    18          0.700              1.652              1.355
 Vibration    19          0.714              1.613              1.253
 Vibration    20          0.723              1.587              1.192
 Vibration    21          0.739              1.543              1.099
 Vibration    22          0.765              1.473              0.967
 Vibration    23          0.782              1.428              0.894
 Vibration    24          0.784              1.424              0.887
 Vibration    25          0.821              1.331              0.756
 Vibration    26          0.849              1.264              0.675
 Vibration    27          0.880              1.195              0.599
 Vibration    28          0.893              1.166              0.570
 Vibration    29          0.908              1.133              0.538
 Vibration    30          0.918              1.112              0.518
 Vibration    31          0.933              1.082              0.492
 Vibration    32          0.968              1.013              0.435
 Vibration    33          0.977              0.996              0.421

 Optimization completed.
    -- Stationary point found.
 Normal termination of Gaussian 16 at Fri Dec 31 12:23:06 2021.
