 Gaussian 16, Revision C.01,
 Gaussian 16:  ES64L-G16RevC.01  3-Jul-2019

 ------------------------------------------------------
 #N M062X/gen OPT FREQ=NoRaman Integral(Grid=UltraFine)
 ------------------------------------------------------

 E-isomer - CH: def2svp - O25 O26 O31 SF: def2tzvp - N: aug-cc-pvtz - O
 12 O13: aug-cc-pvtz
 ----------------------------------------------------------------------
 Symbolic Z-matrix:
 Charge =  0 Multiplicity = 1

 SCF Done:  E(RM062X) =  -1553.04757903     A.U. after   14 cycles
 SCF Done:  E(RM062X) =  -1553.14563696     A.U. after   15 cycles
 SCF Done:  E(RM062X) =  -1553.18045190     A.U. after   14 cycles
 SCF Done:  E(RM062X) =  -1553.17997792     A.U. after   16 cycles
 SCF Done:  E(RM062X) =  -1553.20516062     A.U. after   14 cycles
 SCF Done:  E(RM062X) =  -1553.20745957     A.U. after   15 cycles
 SCF Done:  E(RM062X) =  -1553.21092921     A.U. after   13 cycles
 SCF Done:  E(RM062X) =  -1553.20835345     A.U. after   15 cycles
 SCF Done:  E(RM062X) =  -1553.21108722     A.U. after   14 cycles
 SCF Done:  E(RM062X) =  -1553.21271279     A.U. after   12 cycles
 SCF Done:  E(RM062X) =  -1553.21518087     A.U. after   12 cycles
 SCF Done:  E(RM062X) =  -1553.21519437     A.U. after   11 cycles
 SCF Done:  E(RM062X) =  -1553.21519876     A.U. after   11 cycles
 SCF Done:  E(RM062X) =  -1553.21520901     A.U. after   11 cycles
 SCF Done:  E(RM062X) =  -1553.21521297     A.U. after   10 cycles
 SCF Done:  E(RM062X) =  -1553.21521648     A.U. after   10 cycles
 SCF Done:  E(RM062X) =  -1553.21521749     A.U. after   10 cycles
 SCF Done:  E(RM062X) =  -1553.21521779     A.U. after   10 cycles
 SCF Done:  E(RM062X) =  -1553.21521785     A.U. after    6 cycles
 Optimization completed.
    -- Stationary point found.
 Normal termination of Gaussian 16 at Fri Dec 31 11:36:17 2021.

 ------------------------------------------------------------------
 #N Geom=AllCheck Guess=TCheck SCRF=Check GenChk RM062X/ChkBas Freq
 ------------------------------------------------------------------

 ----------------------------------------------------------------------
 E-isomer - CH: def2svp - O25 O26 O31 SF: def2tzvp - N: aug-cc-pvtz - O
 12 O13: aug-cc-pvtz
 ----------------------------------------------------------------------
 Charge =  0 Multiplicity = 1

                         Standard orientation:
 ---------------------------------------------------------------------
 Center     Atomic      Atomic             Coordinates (Angstroms)
 Number     Number       Type             X           Y           Z
 ---------------------------------------------------------------------
      1          6           0       -3.365666   -0.966459   -0.671399
      2          6           0       -4.329276   -0.169751   -0.066671
      3          6           0       -4.011822    0.993615    0.624439
      4          6           0       -2.675714    1.367644    0.709802
      5          6           0       -1.672490    0.581041    0.125232
      6          6           0       -2.032585   -0.581209   -0.571603
      7          1           0       -3.668746   -1.862169   -1.210329
      8          1           0       -4.806098    1.581027    1.081107
      9          1           0       -2.405070    2.274843    1.252388
     10          1           0       -1.254204   -1.178303   -1.049923
     11          7           0       -5.745767   -0.571836   -0.164624
     12          8           0       -5.997359   -1.592518   -0.764793
     13          8           0       -6.568046    0.143532    0.362357
     14          6           0       -0.245042    0.997085    0.206923
     15          6           0        0.660291    0.165388    0.736075
     16          6           0        0.484648   -1.169049    1.376661
     17          1           0       -0.571128   -1.366852    1.591327
     18          1           0        0.870614   -1.968573    0.725524
     19          1           0        1.054073   -1.200603    2.316688
     20          6           0        0.109484    2.336353   -0.381455
     21          1           0        0.121630    2.267632   -1.480426
     22          1           0       -0.648469    3.085157   -0.113329
     23          1           0        1.090355    2.693088   -0.045485
     24         16           0        2.916985    0.442959   -0.517832
     25          8           0        3.629935    1.649275   -0.713734
     26          8           0        2.196376   -0.203883   -1.555607
     27          6           0        4.127520   -0.773404    0.150059
     28          9           0        4.746341   -0.268877    1.203548
     29          9           0        5.009534   -1.051680   -0.794903
     30          9           0        3.495819   -1.885655    0.504915
     31          8           0        2.014635    0.598424    0.761742
 ---------------------------------------------------------------------

 SCF Done:  E(RM062X) =  -1553.21521785     A.U. after    1 cycles

 The electronic state is 1-A.
 Alpha  occ. eigenvalues --  -90.15866 -25.32790 -25.32526 -25.32509 -19.72856
 Alpha  occ. eigenvalues --  -19.67388 -19.67385 -19.67183 -19.66867 -15.01224
 Alpha  occ. eigenvalues --  -10.86567 -10.65862 -10.63720 -10.61106 -10.60258
 Alpha  occ. eigenvalues --  -10.60248 -10.60222 -10.59977 -10.59864 -10.58588
 Alpha  occ. eigenvalues --  -10.57979  -8.48582  -6.40848  -6.40666  -6.40595
 Alpha  occ. eigenvalues --   -1.51741  -1.42556  -1.42471  -1.38604  -1.32992
 Alpha  occ. eigenvalues --   -1.22261  -1.19885  -1.18873  -1.01164  -0.96075
 Alpha  occ. eigenvalues --   -0.91393  -0.88342  -0.87905  -0.86253  -0.81436
 Alpha  occ. eigenvalues --   -0.79963  -0.76568  -0.74640  -0.74249  -0.73751
 Alpha  occ. eigenvalues --   -0.72726  -0.69593  -0.66789  -0.65778  -0.64273
 Alpha  occ. eigenvalues --   -0.63138  -0.62434  -0.61885  -0.61597  -0.60921
 Alpha  occ. eigenvalues --   -0.59550  -0.58126  -0.58066  -0.57170  -0.56580
 Alpha  occ. eigenvalues --   -0.56015  -0.55745  -0.55026  -0.53206  -0.52981
 Alpha  occ. eigenvalues --   -0.51259  -0.49852  -0.49757  -0.49141  -0.47964
 Alpha  occ. eigenvalues --   -0.47156  -0.46021  -0.45128  -0.44864  -0.44580
 Alpha  occ. eigenvalues --   -0.43268  -0.42478  -0.40357  -0.39586  -0.39556
 Alpha  occ. eigenvalues --   -0.36350  -0.34988  -0.32369
 Alpha virt. eigenvalues --   -0.06925  -0.01617   0.00124   0.03270   0.03667
 Alpha virt. eigenvalues --    0.05406   0.06215   0.06515   0.07877   0.08022
 Alpha virt. eigenvalues --    0.08565   0.09506   0.09703   0.10448   0.11952

 Mulliken charges:
               1
     1  C    0.000199
     2  C    0.181320
     3  C   -0.001469
     4  C   -0.006898
     5  C   -0.028210
     6  C   -0.006460
     7  H    0.060701
     8  H    0.060237
     9  H    0.030914
    10  H    0.036226
    11  N    0.635521
    12  O   -0.511284
    13  O   -0.511100
    14  C   -0.154167
    15  C    0.051018
    16  C    0.049295
    17  H    0.073429
    18  H    0.082651
    19  H    0.071601
    20  C    0.058841
    21  H    0.080961
    22  H    0.054501
    23  H    0.084697
    24  S    0.699929
    25  O   -0.391517
    26  O   -0.394272
    27  C    0.699657
    28  F   -0.202346
    29  F   -0.203885
    30  F   -0.221544
    31  O   -0.378546
 Sum of Mulliken charges =  -0.00000

 Dipole moment (field-independent basis, Debye):
    X=              1.8100    Y=              0.3726    Z=              2.0196  Tot=              2.7374
 Quadrupole moment (field-independent basis, Debye-Ang):
   XX=           -171.1232   YY=           -122.7103   ZZ=           -127.0186
   XY=            -13.0743   XZ=              1.1790   YZ=              0.1976

  Exact polarizability:     238.442       2.675     152.253       1.823      10.867     118.386
 Approx polarizability:     245.372      -0.480     212.661       1.190      27.647     168.231

                      1                      2                      3
                      A                      A                      A
 Frequencies --     17.6619                29.0594                31.9862
 Red. masses --      7.3857                10.3178                 9.9149
 Frc consts  --      0.0014                 0.0051                 0.0060
 IR Inten    --      0.0246                 1.2869                 0.6643

                      4                      5                      6
                      A                      A                      A
 Frequencies --     45.8160                51.2525                65.9761
 Red. masses --      5.2036                12.2551                 4.6236
 Frc consts  --      0.0064                 0.0190                 0.0119
 IR Inten    --      0.2823                 1.0547                 0.0869

                      7                      8                      9
                      A                      A                      A
 Frequencies --     67.6481               114.8891               143.5973
 Red. masses --      6.8589                 2.9857                 1.5234
 Frc consts  --      0.0185                 0.0232                 0.0185
 IR Inten    --      1.4538                 2.1442                 0.5865

                     10                     11                     12
                      A                      A                      A
 Frequencies --    149.1649               160.8005               186.3294
 Red. masses --      7.3339                 4.0078                 4.0319
 Frc consts  --      0.0961                 0.0611                 0.0825
 IR Inten    --      0.8993                 0.0727                 1.8791

                     13                     14                     15
                      A                      A                      A
 Frequencies --    199.6704               231.9079               254.9719
 Red. masses --     15.4319                 1.1802                 6.2570
 Frc consts  --      0.3625                 0.0374                 0.2397
 IR Inten    --      2.5614                 0.8618                 3.0938

                     16                     17                     18
                      A                      A                      A
 Frequencies --    270.8896               286.2538               307.7497
 Red. masses --      4.4298                 4.8736                 5.2242
 Frc consts  --      0.1915                 0.2353                 0.2915
 IR Inten    --      4.7074                 0.3241                 0.9917

                     19                     20                     21
                      A                      A                      A
 Frequencies --    330.8042               346.8245               377.6021
 Red. masses --     15.9949                 6.5646                 4.8854
 Frc consts  --      1.0313                 0.4652                 0.4104
 IR Inten    --      0.5618                 3.0310                 0.0547

                     22                     23                     24
                      A                      A                      A
 Frequencies --    392.2622               425.8190               428.0269
 Red. masses --      5.6355                 2.9934                 5.9126
 Frc consts  --      0.5109                 0.3198                 0.6382
 IR Inten    --      4.4678                 0.3500                 6.6388

                     25                     26                     27
                      A                      A                      A
 Frequencies --    467.6779               499.3454               527.4547
 Red. masses --      6.3247                 6.5553                 7.7022
 Frc consts  --      0.8150                 0.9630                 1.2625
 IR Inten    --      3.2233                30.2468                 1.0268

                     28                     29                     30
                      A                      A                      A
 Frequencies --    538.8957               554.1731               573.7143
 Red. masses --      4.9587                 8.1053                 8.2452
 Frc consts  --      0.8485                 1.4666                 1.5990
 IR Inten    --      2.0277                 7.4804                 3.2509

                     31                     32                     33
                      A                      A                      A
 Frequencies --    581.3879               605.1360               629.1453
 Red. masses --      7.4068                 5.1491                 4.6119
 Frc consts  --      1.4751                 1.1109                 1.0756
 IR Inten    --      4.4742                55.3112                 3.6701

                     34                     35                     36
                      A                      A                      A
 Frequencies --    645.2707               661.9852               733.8705
 Red. masses --      6.1873                 7.5450                 3.6441
 Frc consts  --      1.5179                 1.9481                 1.1563
 IR Inten    --      4.3168               132.4967                 9.5710

                     37                     38                     39
                      A                      A                      A
 Frequencies --    743.8272               790.5866               802.7739
 Red. masses --      5.6880                10.1636                 4.1953
 Frc consts  --      1.8542                 3.7428                 1.5929
 IR Inten    --     21.2555                23.6451                19.5845

                     40                     41                     42
                      A                      A                      A
 Frequencies --    824.3184               874.9956               892.7614
 Red. masses --      5.9210                 1.2462                 8.7522
 Frc consts  --      2.3705                 0.5621                 4.1100
 IR Inten    --     74.3792                 0.1720               134.0916

                     43                     44                     45
                      A                      A                      A
 Frequencies --    904.8633               938.6468               999.3404
 Red. masses --      1.8882                 2.7325                 2.2578
 Frc consts  --      0.9109                 1.4185                 1.3285
 IR Inten    --     25.2005               114.9536               185.0580

                     46                     47                     48
                      A                      A                      A
 Frequencies --   1022.6180              1030.0829              1031.6937
 Red. masses --      1.4173                 1.6080                 2.0963
 Frc consts  --      0.8733                 1.0053                 1.3147
 IR Inten    --      0.4826                 5.2856                 6.2576

                     49                     50                     51
                      A                      A                      A
 Frequencies --   1042.6598              1053.9889              1085.3899
 Red. masses --      1.5904                 1.5084                 1.9616
 Frc consts  --      1.0187                 0.9873                 1.3615
 IR Inten    --      0.7067                 0.8303                98.1504

                     52                     53                     54
                      A                      A                      A
 Frequencies --   1116.2607              1138.2884              1145.8139
 Red. masses --      1.3056                 2.4204                 2.0795
 Frc consts  --      0.9585                 1.8477                 1.6086
 IR Inten    --     13.2596                39.9940                31.2360

                     55                     56                     57
                      A                      A                      A
 Frequencies --   1190.1189              1194.6644              1202.7740
 Red. masses --      2.2562                 2.8830                 4.7801
 Frc consts  --      1.8828                 2.4243                 4.0743
 IR Inten    --     89.6840               105.1387               166.4829

                     58                     59                     60
                      A                      A                      A
 Frequencies --   1290.4656              1301.2104              1304.2740
 Red. masses --     12.3773                 1.3652                 9.3957
 Frc consts  --     12.1442                 1.3619                 9.4171
 IR Inten    --    170.9847                11.4667                92.5438

                     61                     62                     63
                      A                      A                      A
 Frequencies --   1311.7087              1344.9974              1364.7737
 Red. masses --     13.0856                 3.2876                 7.0468
 Frc consts  --     13.2653                 3.5040                 7.7333
 IR Inten    --    327.4902                 5.0402                13.3597

                     64                     65                     66
                      A                      A                      A
 Frequencies --   1394.6042              1409.7140              1448.1191
 Red. masses --      1.3016                 1.5144                 1.2108
 Frc consts  --      1.4915                 1.7731                 1.4960
 IR Inten    --      8.7799                12.4415                26.3858

                     67                     68                     69
                      A                      A                      A
 Frequencies --   1452.1369              1455.1568              1460.7388
 Red. masses --      2.2101                 1.1256                 2.2799
 Frc consts  --      2.7458                 1.4043                 2.8662
 IR Inten    --     11.5710                 1.1265               158.3214

                     70                     71                     72
                      A                      A                      A
 Frequencies --   1462.2117              1466.5162              1484.4997
 Red. masses --      1.7160                 1.1556                 7.5634
 Frc consts  --      2.1616                 1.4643                 9.8203
 IR Inten    --    212.3697                43.6800               208.5540

                     73                     74                     75
                      A                      A                      A
 Frequencies --   1546.2661              1653.2949              1693.0430
 Red. masses --      3.0129                10.7176                 6.8066
 Frc consts  --      4.2443                17.2603                11.4952
 IR Inten    --      8.1558               184.1340                21.1878

                     76                     77                     78
                      A                      A                      A
 Frequencies --   1708.3318              1796.1262              3066.0858
 Red. masses --     10.1853                 9.6415                 1.0393
 Frc consts  --     17.5133                18.3261                 5.7564
 IR Inten    --    159.3152                27.9430                 0.4884

                     79                     80                     81
                      A                      A                      A
 Frequencies --   3066.6371              3146.1210              3146.5065
 Red. masses --      1.0394                 1.1017                 1.1011
 Frc consts  --      5.7590                 6.4251                 6.4228
 IR Inten    --      7.7451                 3.2425                 2.7380

                     82                     83                     84
                      A                      A                      A
 Frequencies --   3187.4805              3198.7642              3223.8978
 Red. masses --      1.1041                 1.1027                 1.0931
 Frc consts  --      6.6091                 6.6480                 6.6941
 IR Inten    --      2.0296                 2.2536                 0.2619

                     85                     86                     87
                      A                      A                      A
 Frequencies --   3224.2193              3263.0223              3264.9987
 Red. masses --      1.0927                 1.0954                 1.0953
 Frc consts  --      6.6926                 6.8716                 6.8796
 IR Inten    --      1.1550                 7.1234                 6.8448

 - Thermochemistry -
 -------------------
 Temperature   298.150 Kelvin.  Pressure   1.00000 Atm.
 Atom     1 has atomic number  6 and mass  12.00000

 Molecular mass:   325.02318 amu.
 Principal axes and moments of inertia in atomic units:
                           1         2         3
     Eigenvalues --  2062.90507********************
           X            1.00000   0.00170  -0.00098
           Y           -0.00171   0.99996  -0.00836
           Z            0.00097   0.00836   0.99996
 This molecule is an asymmetric top.
 Rotational symmetry number  1.
 Warning -- assumption of classical behavior for rotation
           may cause significant error
 Rotational temperatures (Kelvin)      0.04199     0.00520     0.00499
 Rotational constants (GHZ):           0.87485     0.10842     0.10397
 Zero-point vibrational energy     562827.5 (Joules/Mol)
                                  134.51900 (Kcal/Mol)
 Warning -- explicit consideration of  32 degrees of freedom as
           vibrations may cause significant error
 Vibrational temperatures:     25.41    41.81    46.02    65.92    73.74
          (Kelvin)             94.92    97.33   165.30   206.60   214.62
                              231.36   268.09   287.28   333.66   366.85
                              389.75   411.86   442.78   475.95   499.00
                              543.29   564.38   612.66   615.84   672.88
                              718.45   758.89   775.35   797.33   825.45
                              836.49   870.66   905.20   928.40   952.45
                             1055.88  1070.20  1137.48  1155.01  1186.01
                             1258.92  1284.48  1301.90  1350.50  1437.83
                             1471.32  1482.06  1484.38  1500.15  1516.45
                             1561.63  1606.05  1637.74  1648.57  1712.32
                             1718.86  1730.52  1856.69  1872.15  1876.56
                             1887.26  1935.15  1963.60  2006.52  2028.26
                             2083.52  2089.30  2093.65  2101.68  2103.80
                             2109.99  2135.86  2224.73  2378.72  2435.91
                             2457.91  2584.23  4411.41  4412.21  4526.57
                             4527.12  4586.07  4602.31  4638.47  4638.93
                             4694.76  4697.60

 Zero-point correction=                           0.214370 (Hartree/Particle)
 Thermal correction to Energy=                    0.234259
 Thermal correction to Enthalpy=                  0.235203
 Thermal correction to Gibbs Free Energy=         0.162502
 Sum of electronic and zero-point Energies=          -1553.000848
 Sum of electronic and thermal Energies=             -1552.980959
 Sum of electronic and thermal Enthalpies=           -1552.980015
 Sum of electronic and thermal Free Energies=        -1553.052716

                     E (Thermal)             CV                S
                      KCal/Mol        Cal/Mol-Kelvin    Cal/Mol-Kelvin
 Total                  147.000             71.882            153.012
 Electronic               0.000              0.000              0.000
 Translational            0.889              2.981             43.232
 Rotational               0.889              2.981             34.743
 Vibrational            145.222             65.920             75.037
 Vibration     1          0.593              1.986              6.881
 Vibration     2          0.593              1.984              5.893
 Vibration     3          0.594              1.983              5.702
 Vibration     4          0.595              1.979              4.990
 Vibration     5          0.596              1.977              4.768
 Vibration     6          0.597              1.971              4.270
 Vibration     7          0.598              1.970              4.221
 Vibration     8          0.608              1.937              3.185
 Vibration     9          0.616              1.910              2.755
 Vibration    10          0.618              1.904              2.683
 Vibration    11          0.622              1.890              2.540
 Vibration    12          0.632              1.859              2.264
 Vibration    13          0.638              1.840              2.136
 Vibration    14          0.653              1.792              1.864
 Vibration    15          0.665              1.754              1.696
 Vibration    16          0.675              1.727              1.591
 Vibration    17          0.684              1.699              1.496
 Vibration    18          0.698              1.659              1.374
 Vibration    19          0.713              1.614              1.256
 Vibration    20          0.725              1.582              1.181
 Vibration    21          0.748              1.518              1.049
 Vibration    22          0.760              1.487              0.992
 Vibration    23          0.788              1.414              0.872
 Vibration    24          0.790              1.409              0.865
 Vibration    25          0.825              1.322              0.744
 Vibration    26          0.855              1.251              0.660
 Vibration    27          0.882              1.189              0.593
 Vibration    28          0.894              1.164              0.568
 Vibration    29          0.910              1.131              0.536
 Vibration    30          0.930              1.088              0.497
 Vibration    31          0.938              1.072              0.483
 Vibration    32          0.964              1.021              0.441

                           ! Non-Optimized Parameters !
 Normal termination of Gaussian 16 at Fri Dec 31 12:09:35 2021.
