 Gaussian 16, Revision C.01,
 Gaussian 16:  ES64L-G16RevC.01  3-Jul-2019

 ----------------------------------------------------------------------
 #N M062X/def2svp OPT FREQ=NoRaman temperature=273.15 Integral(Grid=Ult
 raFine)
 ----------------------------------------------------------------------

 --------
 Exo-dcpd
 --------
 Symbolic Z-matrix:
 Charge =  0 Multiplicity = 1

 SCF Done:  E(RM062X) =  -387.732258181     A.U. after   14 cycles
 SCF Done:  E(RM062X) =  -387.755326424     A.U. after   13 cycles
 SCF Done:  E(RM062X) =  -387.764178505     A.U. after   12 cycles
 SCF Done:  E(RM062X) =  -387.769780256     A.U. after   12 cycles
 SCF Done:  E(RM062X) =  -387.772849538     A.U. after   12 cycles
 SCF Done:  E(RM062X) =  -387.773205385     A.U. after   12 cycles
 SCF Done:  E(RM062X) =  -387.773254006     A.U. after    9 cycles
 SCF Done:  E(RM062X) =  -387.773261566     A.U. after    9 cycles
 SCF Done:  E(RM062X) =  -387.773262253     A.U. after    8 cycles
 SCF Done:  E(RM062X) =  -387.773262470     A.U. after    7 cycles
 Optimization completed.
    -- Stationary point found.
 Normal termination of Gaussian 16 at Mon Dec 27 18:46:34 2021.

 -------------------------------------------------------------------
 #N Geom=AllCheck Guess=TCheck SCRF=Check GenChk RM062X/def2SVP Freq
 -------------------------------------------------------------------

 Structure from the checkpoint file:  "axMeCyhex.chk"
 --------
 Exo-dcpd
 --------
 Charge =  0 Multiplicity = 1

                         Standard orientation:
 ---------------------------------------------------------------------
 Center     Atomic      Atomic             Coordinates (Angstroms)
 Number     Number       Type             X           Y           Z
 ---------------------------------------------------------------------
      1          6           0        2.106940    0.688165   -0.392106
      2          6           0        0.836884    1.122195    0.321098
      3          6           0        0.878896   -1.124390    0.328859
      4          6           0        2.133119   -0.649951   -0.386479
      5          1           0        2.798679    1.357829   -0.904153
      6          1           0        2.849822   -1.297129   -0.893043
      7          6           0        0.711938   -0.001075    1.368061
      8          1           0       -0.260318   -0.022121    1.881365
      9          1           0        1.526134    0.016231    2.104650
     10          6           0       -0.342980    0.767137   -0.636319
     11          1           0       -0.166915    1.191090   -1.633075
     12          6           0       -0.305969   -0.800649   -0.646085
     13          1           0       -0.102750   -1.228046   -1.639573
     14          1           0        0.815247    2.156749    0.686943
     15          1           0        0.886915   -2.157367    0.698788
     16          6           0       -1.666448   -1.199553   -0.141230
     17          1           0       -1.967606   -2.243307   -0.026917
     18          6           0       -1.742745    1.163864   -0.106154
     19          1           0       -1.674264    1.773038    0.812320
     20          1           0       -2.301449    1.771815   -0.835408
     21          6           0       -2.434929   -0.149773    0.156692
     22          1           0       -3.451731   -0.214595    0.550081
 ---------------------------------------------------------------------

 SCF Done:  E(RM062X) =  -387.773262470     A.U. after    1 cycles

 The electronic state is 1-A.
 Alpha  occ. eigenvalues --  -10.55393 -10.55309 -10.55171 -10.55109 -10.54868
 Alpha  occ. eigenvalues --  -10.54690 -10.54447 -10.54418 -10.54336 -10.54244
 Alpha  occ. eigenvalues --   -0.98700  -0.90996  -0.81929  -0.79843  -0.76803
 Alpha  occ. eigenvalues --   -0.75035  -0.63577  -0.62387  -0.60653  -0.58059
 Alpha  occ. eigenvalues --   -0.56908  -0.56335  -0.54679  -0.47126  -0.45289
 Alpha  occ. eigenvalues --   -0.45022  -0.44014  -0.42161  -0.41199  -0.39940
 Alpha  occ. eigenvalues --   -0.38631  -0.38401  -0.37569  -0.36308  -0.30339
 Alpha  occ. eigenvalues --   -0.28522
 Alpha virt. eigenvalues --    0.04997   0.06132   0.10155   0.12231   0.13346
 Alpha virt. eigenvalues --    0.14008   0.15235   0.16393   0.17021   0.17169
 Alpha virt. eigenvalues --    0.18090   0.19391   0.19632   0.20688   0.21841

 Mulliken charges:
               1
     1  C   -0.010642
     2  C   -0.134978
     3  C   -0.130506
     4  C   -0.010057
     5  H    0.021486
     6  H    0.021512
     7  C    0.062542
     8  H    0.040316
     9  H    0.042934
    10  C   -0.105670
    11  H    0.026255
    12  C   -0.024648
    13  H    0.033252
    14  H    0.024648
    15  H    0.023477
    16  C   -0.005579
    17  H    0.023571
    18  C    0.096746
    19  H    0.039229
    20  H    0.045198
    21  C   -0.103575
    22  H    0.024488
 Sum of Mulliken charges =  -0.00000

 Dipole moment (field-independent basis, Debye):
    X=             -0.2107    Y=              0.1073    Z=             -0.1282  Tot=              0.2690
 Quadrupole moment (field-independent basis, Debye-Ang):
   XX=            -60.5417   YY=            -58.0405   ZZ=            -61.6050
   XY=             -0.5124   XZ=             -1.8480   YZ=             -0.0436

  Exact polarizability:     105.240      -4.341     100.434      -5.692       0.937      76.222
 Approx polarizability:     118.671      -8.848     136.947      -6.980       3.148      99.556

                      1                      2                      3
                      A                      A                      A
 Frequencies --    148.6585               215.0762               318.1824
 Red. masses --      2.5998                 3.3573                 2.3967
 Frc consts  --      0.0339                 0.0915                 0.1430
 IR Inten    --      0.0771                 0.1438                 0.6498

                      4                      5                      6
                      A                      A                      A
 Frequencies --    375.1957               431.0290               451.8335
 Red. masses --      3.0247                 2.4349                 3.4768
 Frc consts  --      0.2509                 0.2665                 0.4182
 IR Inten    --      1.3376                 0.4573                 0.2751

                      7                      8                      9
                      A                      A                      A
 Frequencies --    524.5577               642.0865               695.5658
 Red. masses --      1.8078                 3.4743                 1.6694
 Frc consts  --      0.2931                 0.8439                 0.4759
 IR Inten    --      4.3838                 0.4840                 1.0977

                     10                     11                     12
                      A                      A                      A
 Frequencies --    735.5718               757.9976               784.2151
 Red. masses --      1.5194                 3.1790                 3.5845
 Frc consts  --      0.4843                 1.0761                 1.2988
 IR Inten    --     66.7812                 4.8584                 2.6913

                     13                     14                     15
                      A                      A                      A
 Frequencies --    800.8603               816.1763               854.8498
 Red. masses --      3.7106                 3.4703                 2.5580
 Frc consts  --      1.4022                 1.3620                 1.1014
 IR Inten    --      0.6953                16.5609                 1.2825

                     16                     17                     18
                      A                      A                      A
 Frequencies --    904.9238               913.9644               929.8641
 Red. masses --      2.1774                 1.9879                 2.1399
 Frc consts  --      1.0505                 0.9784                 1.0902
 IR Inten    --      0.4791                 1.6397                 1.7255

                     19                     20                     21
                      A                      A                      A
 Frequencies --    951.1626               966.7888               968.4651
 Red. masses --      1.9572                 2.0180                 1.7682
 Frc consts  --      1.0432                 1.1113                 0.9771
 IR Inten    --      3.3455                 6.6088                 1.3724

                     22                     23                     24
                      A                      A                      A
 Frequencies --    983.4603               996.0820              1006.1900
 Red. masses --      1.5459                 1.3769                 1.5959
 Frc consts  --      0.8809                 0.8049                 0.9519
 IR Inten    --      1.0364                 0.0248                 0.6739

                     25                     26                     27
                      A                      A                      A
 Frequencies --   1025.6650              1032.6731              1049.9978
 Red. masses --      1.4167                 1.6579                 1.8249
 Frc consts  --      0.8781                 1.0417                 1.1854
 IR Inten    --      0.4677                 3.5763                 0.5819

                     28                     29                     30
                      A                      A                      A
 Frequencies --   1074.3046              1106.0419              1108.4419
 Red. masses --      1.9267                 1.2515                 1.2059
 Frc consts  --      1.3102                 0.9020                 0.8729
 IR Inten    --      2.4198                 1.9682                 0.4959

                     31                     32                     33
                      A                      A                      A
 Frequencies --   1124.0283              1167.9928              1175.7014
 Red. masses --      1.1261                 1.2713                 1.6027
 Frc consts  --      0.8383                 1.0218                 1.3052
 IR Inten    --      0.7026                 0.7781                 0.8816

                     34                     35                     36
                      A                      A                      A
 Frequencies --   1215.4648              1244.3601              1265.0760
 Red. masses --      2.0514                 1.3090                 1.4461
 Frc consts  --      1.7856                 1.1943                 1.3636
 IR Inten    --      0.2383                 1.4162                 1.0432

                     37                     38                     39
                      A                      A                      A
 Frequencies --   1271.1658              1281.6980              1294.8188
 Red. masses --      1.3485                 1.4559                 1.6612
 Frc consts  --      1.2838                 1.4092                 1.6409
 IR Inten    --      0.7198                 2.2123                 1.0327

                     40                     41                     42
                      A                      A                      A
 Frequencies --   1313.1411              1330.7271              1341.7180
 Red. masses --      1.6566                 1.6189                 1.8750
 Frc consts  --      1.6830                 1.6891                 1.9887
 IR Inten    --      2.4483                 1.5118                 2.6314

                     43                     44                     45
                      A                      A                      A
 Frequencies --   1357.3698              1381.0421              1458.0762
 Red. masses --      1.9367                 1.9717                 1.1049
 Frc consts  --      2.1024                 2.2157                 1.3839
 IR Inten    --      6.1864                 5.6324                 4.5380

                     46                     47                     48
                      A                      A                      A
 Frequencies --   1473.6654              1688.6693              1731.0673
 Red. masses --      1.1225                 6.2539                 6.8320
 Frc consts  --      1.4363                10.5073                12.0621
 IR Inten    --      8.7461                 1.3257                 0.6292

                     49                     50                     51
                      A                      A                      A
 Frequencies --   3049.1405              3091.3066              3094.9680
 Red. masses --      1.0649                 1.0874                 1.1012
 Frc consts  --      5.8334                 6.1225                 6.2149
 IR Inten    --     29.1956                21.4350                12.2689

                     52                     53                     54
                      A                      A                      A
 Frequencies --   3095.9929              3125.5586              3137.0013
 Red. masses --      1.0605                 1.0892                 1.0890
 Frc consts  --      5.9888                 6.2690                 6.3142
 IR Inten    --     16.9360                27.4879                42.2544

                     55                     56                     57
                      A                      A                      A
 Frequencies --   3141.9638              3162.0712              3205.8827
 Red. masses --      1.0914                 1.1096                 1.0862
 Frc consts  --      6.3481                 6.5368                 6.5777
 IR Inten    --      9.0498                18.7117                 3.2024

                     58                     59                     60
                      A                      A                      A
 Frequencies --   3226.7920              3229.9624              3251.2065
 Red. masses --      1.0873                 1.1062                 1.1090
 Frc consts  --      6.6700                 6.7996                 6.9069
 IR Inten    --      2.5473                17.6426                 9.6308

 - Thermochemistry -
 -------------------
 Temperature   273.150 Kelvin.  Pressure   1.00000 Atm.
 Atom     1 has atomic number  6 and mass  12.00000

 Molecular mass:   132.09390 amu.
 Principal axes and moments of inertia in atomic units:
                           1         2         3
     Eigenvalues --   620.408151342.799831557.20502
           X            0.99992  -0.00980  -0.00763
           Y            0.00978   0.99995  -0.00182
           Z            0.00765   0.00174   0.99997
 This molecule is an asymmetric top.
 Rotational symmetry number  1.
 Warning -- assumption of classical behavior for rotation
           may cause significant error
 Rotational temperatures (Kelvin)      0.13961     0.06450     0.05562
 Rotational constants (GHZ):           2.90896     1.34401     1.15896
 Zero-point vibrational energy     511388.7 (Joules/Mol)
                                  122.22483 (Kcal/Mol)
 Warning -- explicit consideration of   7 degrees of freedom as
           vibrations may cause significant error
 Vibrational temperatures:    213.89   309.45   457.79   539.82   620.15
          (Kelvin)            650.09   754.72   923.82  1000.76  1058.32
                             1090.59  1128.31  1152.26  1174.30  1229.94
                             1301.98  1314.99  1337.87  1368.51  1390.99
                             1393.41  1414.98  1433.14  1447.68  1475.70
                             1485.79  1510.71  1545.68  1591.35  1594.80
                             1617.23  1680.48  1691.57  1748.78  1790.36
                             1820.16  1828.92  1844.08  1862.96  1889.32
                             1914.62  1930.43  1952.95  1987.01  2097.85
                             2120.28  2429.62  2490.62  4387.03  4447.70
                             4452.97  4454.44  4496.98  4513.45  4520.59
                             4549.52  4612.55  4642.63  4647.20  4677.76

 Zero-point correction=                           0.194778 (Hartree/Particle)
 Thermal correction to Energy=                    0.200624
 Thermal correction to Enthalpy=                  0.201489
 Thermal correction to Gibbs Free Energy=         0.166788
 Sum of electronic and zero-point Energies=           -387.578485
 Sum of electronic and thermal Energies=              -387.572639
 Sum of electronic and thermal Enthalpies=            -387.571774
 Sum of electronic and thermal Free Energies=         -387.606474

                     E (Thermal)             CV                S
                      KCal/Mol        Cal/Mol-Kelvin    Cal/Mol-Kelvin
 Total                  125.893             27.337             79.717
 Electronic               0.000              0.000              0.000
 Translational            0.814              2.981             40.113
 Rotational               0.814              2.981             28.391
 Vibrational            124.265             21.376             11.213
 Vibration     1          0.570              1.889              2.523
 Vibration     2          0.600              1.788              1.842
 Vibration     3          0.664              1.581              1.178
 Vibration     4          0.709              1.450              0.928
 Vibration     5          0.758              1.316              0.736
 Vibration     6          0.778              1.265              0.675
 Vibration     7          0.851              1.091              0.499

 Optimization completed.
    -- Stationary point found.
 Normal termination of Gaussian 16 at Mon Dec 27 18:49:21 2021.
