 Gaussian 16, Revision C.01,
 Gaussian 16:  ES64L-G16RevC.01  3-Jul-2019

 ----------------------------------------------------------
 #N M062X/def2svp OPT FREQ=NoRaman Integral(Grid=UltraFine)
 ----------------------------------------------------------

 -----------------------
 E-isomer - all: def2svp
 -----------------------
 Symbolic Z-matrix:
 Charge =  0 Multiplicity = 1

 SCF Done:  E(RM062X) =  -1551.97252768     A.U. after   16 cycles
 SCF Done:  E(RM062X) =  -1552.07031763     A.U. after   17 cycles
 SCF Done:  E(RM062X) =  -1552.10332027     A.U. after   16 cycles
 SCF Done:  E(RM062X) =  -1552.11221889     A.U. after   17 cycles
 SCF Done:  E(RM062X) =  -1552.12030767     A.U. after   15 cycles
 SCF Done:  E(RM062X) =  -1552.11424871     A.U. after   17 cycles
 SCF Done:  E(RM062X) =  -1552.12799142     A.U. after   15 cycles
 SCF Done:  E(RM062X) =  -1552.13066182     A.U. after   14 cycles
 SCF Done:  E(RM062X) =  -1552.13161726     A.U. after   17 cycles
 SCF Done:  E(RM062X) =  -1552.12948612     A.U. after   17 cycles
 SCF Done:  E(RM062X) =  -1552.13636684     A.U. after   10 cycles
 SCF Done:  E(RM062X) =  -1552.13637037     A.U. after   11 cycles
 SCF Done:  E(RM062X) =  -1552.13637123     A.U. after   10 cycles
 SCF Done:  E(RM062X) =  -1552.13637140     A.U. after    8 cycles
 SCF Done:  E(RM062X) =  -1552.13637154     A.U. after    9 cycles
 SCF Done:  E(RM062X) =  -1552.13637163     A.U. after    9 cycles
 SCF Done:  E(RM062X) =  -1552.13637168     A.U. after    9 cycles
 SCF Done:  E(RM062X) =  -1552.13637171     A.U. after    8 cycles
 SCF Done:  E(RM062X) =  -1552.13637171     A.U. after    8 cycles
 Optimization completed.
    -- Stationary point found.
 Normal termination of Gaussian 16 at Fri Dec 31 10:37:31 2021.

 -------------------------------------------------------------------
 #N Geom=AllCheck Guess=TCheck SCRF=Check GenChk RM062X/def2SVP Freq
 -------------------------------------------------------------------

 Structure from the checkpoint file:  "E-isomer.chk"
 -----------------------
 E-isomer - all: def2svp
 -----------------------
 Charge =  0 Multiplicity = 1

                         Standard orientation:
 ---------------------------------------------------------------------
 Center     Atomic      Atomic             Coordinates (Angstroms)
 Number     Number       Type             X           Y           Z
 ---------------------------------------------------------------------
      1          6           0       -3.321462   -0.998987   -0.622866
      2          6           0       -4.296933   -0.169591   -0.083570
      3          6           0       -3.990312    1.023480    0.561041
      4          6           0       -2.654301    1.393355    0.667416
      5          6           0       -1.640419    0.574641    0.149359
      6          6           0       -1.989145   -0.616316   -0.503493
      7          1           0       -3.618199   -1.916924   -1.127668
      8          1           0       -4.795284    1.634696    0.965747
      9          1           0       -2.391886    2.323578    1.174282
     10          1           0       -1.200159   -1.236798   -0.932398
     11          7           0       -5.714834   -0.568284   -0.203119
     12          8           0       -5.951807   -1.610209   -0.763551
     13          8           0       -6.540392    0.174379    0.269069
     14          6           0       -0.213153    0.983136    0.248796
     15          6           0        0.676643    0.178174    0.845121
     16          6           0        0.469698   -1.118891    1.552191
     17          1           0       -0.592898   -1.305879    1.738881
     18          1           0        0.882375   -1.949843    0.959656
     19          1           0        1.006303   -1.098149    2.511751
     20          6           0        0.172763    2.281537   -0.407413
     21          1           0        0.208801    2.148816   -1.500008
     22          1           0       -0.576903    3.056765   -0.196784
     23          1           0        1.152832    2.640837   -0.069772
     24         16           0        2.905981    0.495155   -0.488114
     25          8           0        3.666276    1.705828   -0.600101
     26          8           0        2.115956   -0.053536   -1.558390
     27          6           0        4.069989   -0.826659    0.067233
     28          9           0        4.764423   -0.405940    1.100380
     29          9           0        4.878247   -1.118237   -0.929321
     30          9           0        3.378385   -1.900417    0.405013
     31          8           0        2.027898    0.578098    0.863027
 ---------------------------------------------------------------------

 SCF Done:  E(RM062X) =  -1552.13637171     A.U. after    1 cycles

 The electronic state is 1-A.
 Alpha  occ. eigenvalues --  -90.18945 -25.33433 -25.33139 -25.33091 -19.72683
 Alpha  occ. eigenvalues --  -19.67714 -19.67416 -19.66962 -19.66958 -15.01223
 Alpha  occ. eigenvalues --  -10.85764 -10.64952 -10.62834 -10.60578 -10.59817
 Alpha  occ. eigenvalues --  -10.59786 -10.59592 -10.59515 -10.59403 -10.58117
 Alpha  occ. eigenvalues --  -10.57554  -8.52222  -6.44721  -6.44576  -6.44485
 Alpha  occ. eigenvalues --   -1.50411  -1.40423  -1.40364  -1.36972  -1.31196
 Alpha  occ. eigenvalues --   -1.20191  -1.18172  -1.16999  -1.00620  -0.95356
 Alpha  occ. eigenvalues --   -0.90754  -0.87755  -0.87416  -0.85763  -0.80862
 Alpha  occ. eigenvalues --   -0.79311  -0.76225  -0.74509  -0.74309  -0.73521
 Alpha  occ. eigenvalues --   -0.72207  -0.68440  -0.65898  -0.64965  -0.63992
 Alpha  occ. eigenvalues --   -0.62644  -0.62013  -0.61477  -0.60580  -0.60329
 Alpha  occ. eigenvalues --   -0.59086  -0.57967  -0.57780  -0.56725  -0.55892
 Alpha  occ. eigenvalues --   -0.55599  -0.55336  -0.54555  -0.52728  -0.52451
 Alpha  occ. eigenvalues --   -0.50823  -0.49484  -0.49276  -0.48245  -0.47317
 Alpha  occ. eigenvalues --   -0.46634  -0.44954  -0.44498  -0.44225  -0.43755
 Alpha  occ. eigenvalues --   -0.42371  -0.41728  -0.39363  -0.38586  -0.38388
 Alpha  occ. eigenvalues --   -0.35764  -0.34539  -0.31665
 Alpha virt. eigenvalues --   -0.05947  -0.01049   0.00756   0.04299   0.07024
 Alpha virt. eigenvalues --    0.07744   0.08842   0.09556   0.09921   0.11124
 Alpha virt. eigenvalues --    0.12228   0.13419   0.14178   0.15435   0.16283

 Mulliken charges:
               1
     1  C   -0.020045
     2  C    0.143247
     3  C   -0.021417
     4  C   -0.023302
     5  C   -0.032682
     6  C   -0.018875
     7  H    0.051244
     8  H    0.050510
     9  H    0.034796
    10  H    0.038195
    11  N    0.235784
    12  O   -0.250185
    13  O   -0.250568
    14  C   -0.113253
    15  C   -0.000587
    16  C    0.039688
    17  H    0.069815
    18  H    0.065305
    19  H    0.070979
    20  C    0.017616
    21  H    0.079686
    22  H    0.055237
    23  H    0.064696
    24  S    0.928005
    25  O   -0.416019
    26  O   -0.431366
    27  C    0.555245
    28  F   -0.149191
    29  F   -0.152861
    30  F   -0.162372
    31  O   -0.457327
 Sum of Mulliken charges =   0.00000

 Dipole moment (field-independent basis, Debye):
    X=              2.3245    Y=             -0.0624    Z=              1.8198  Tot=              2.9528
 Quadrupole moment (field-independent basis, Debye-Ang):
   XX=           -165.2939   YY=           -122.8543   ZZ=           -126.5566
   XY=            -13.6500   XZ=             -0.0415   YZ=             -0.2778

  Exact polarizability:     218.505       0.622     142.896       2.930      10.578     105.599
 Approx polarizability:     232.200      -0.997     203.728       3.585      28.403     151.917

                      1                      2                      3
                      A                      A                      A
 Frequencies --     17.8675                27.0545                30.4532
 Red. masses --      9.3968                11.5424                 7.8837
 Frc consts  --      0.0018                 0.0050                 0.0043
 IR Inten    --      0.1777                 0.5202                 0.6543

                      4                      5                      6
                      A                      A                      A
 Frequencies --     41.7632                49.5497                64.1273
 Red. masses --     11.5429                 5.1704                 4.7376
 Frc consts  --      0.0119                 0.0075                 0.0115
 IR Inten    --      0.8313                 0.6102                 0.3596

                      7                      8                      9
                      A                      A                      A
 Frequencies --     69.6289               115.1676               143.8069
 Red. masses --      5.8066                 3.4802                 3.6473
 Frc consts  --      0.0166                 0.0272                 0.0444
 IR Inten    --      0.7571                 2.7415                 0.8515

                     10                     11                     12
                      A                      A                      A
 Frequencies --    150.5038               157.6348               188.6857
 Red. masses --      2.1353                 2.6574                 3.8591
 Frc consts  --      0.0285                 0.0389                 0.0810
 IR Inten    --      0.0254                 0.2792                 2.2605

                     13                     14                     15
                      A                      A                      A
 Frequencies --    196.7645               205.3809               259.0380
 Red. masses --     13.7822                 1.2667                 6.7012
 Frc consts  --      0.3144                 0.0315                 0.2649
 IR Inten    --      3.6858                 0.7378                 4.1075

                     16                     17                     18
                      A                      A                      A
 Frequencies --    272.2477               289.5097               302.3018
 Red. masses --      5.1840                 4.9349                 4.8792
 Frc consts  --      0.2264                 0.2437                 0.2627
 IR Inten    --      6.4595                 0.3127                 1.5258

                     19                     20                     21
                      A                      A                      A
 Frequencies --    329.9554               346.2457               378.4646
 Red. masses --     15.9115                 6.0955                 5.1057
 Frc consts  --      1.0206                 0.4306                 0.4309
 IR Inten    --      1.1320                 2.5210                 0.5815

                     22                     23                     24
                      A                      A                      A
 Frequencies --    395.0874               420.5169               425.0772
 Red. masses --      5.0226                 6.6581                 2.9694
 Frc consts  --      0.4619                 0.6937                 0.3161
 IR Inten    --      6.1279                 7.1491                 0.1341

                     25                     26                     27
                      A                      A                      A
 Frequencies --    469.2769               491.7828               532.1069
 Red. masses --      5.9476                 6.8289                 6.4172
 Frc consts  --      0.7717                 0.9731                 1.0705
 IR Inten    --      4.8476                27.9719                 2.1457

                     28                     29                     30
                      A                      A                      A
 Frequencies --    539.7184               559.7009               577.1267
 Red. masses --      4.9039                 7.0616                10.2025
 Frc consts  --      0.8416                 1.3034                 2.0022
 IR Inten    --      1.6307                10.1749                 0.7398

                     31                     32                     33
                      A                      A                      A
 Frequencies --    583.0021               598.1993               629.2911
 Red. masses --      8.9211                 5.5408                 4.6494
 Frc consts  --      1.7865                 1.1682                 1.0848
 IR Inten    --      2.6096                63.0913                 7.1980

                     34                     35                     36
                      A                      A                      A
 Frequencies --    645.2673               657.3602               730.8516
 Red. masses --      6.0093                 7.0335                 3.6581
 Frc consts  --      1.4742                 1.7907                 1.1512
 IR Inten    --      2.3871               129.7295                15.0255

                     37                     38                     39
                      A                      A                      A
 Frequencies --    743.2160               782.3688               788.3910
 Red. masses --      6.1119                 5.5153                 6.5752
 Frc consts  --      1.9891                 1.9890                 2.4079
 IR Inten    --     49.4519                48.8913                73.6560

                     40                     41                     42
                      A                      A                      A
 Frequencies --    817.8705               873.8733               894.4070
 Red. masses --     10.6429                 1.2456                 1.7282
 Frc consts  --      4.1945                 0.5604                 0.8145
 IR Inten    --     51.5181                 0.4932                26.1497

                     43                     44                     45
                      A                      A                      A
 Frequencies --    903.7165               935.7468               997.6264
 Red. masses --      7.2715                 3.0102                 1.9925
 Frc consts  --      3.4990                 1.5529                 1.1684
 IR Inten    --    170.3129                49.8159               117.8381

                     46                     47                     48
                      A                      A                      A
 Frequencies --   1017.1898              1026.4707              1030.2464
 Red. masses --      1.3678                 1.3749                 2.5695
 Frc consts  --      0.8338                 0.8535                 1.6069
 IR Inten    --      0.5017                 0.8102                 7.2157

                     49                     50                     51
                      A                      A                      A
 Frequencies --   1041.8159              1052.9011              1090.0478
 Red. masses --      1.6077                 1.4871                 1.9734
 Frc consts  --      1.0281                 0.9713                 1.3815
 IR Inten    --      0.3681                 1.2748                81.6417

                     52                     53                     54
                      A                      A                      A
 Frequencies --   1113.2280              1138.1142              1147.8916
 Red. masses --      1.2769                 2.5515                 1.8675
 Frc consts  --      0.9323                 1.9472                 1.4498
 IR Inten    --     13.7073                37.5363                36.8110

                     55                     56                     57
                      A                      A                      A
 Frequencies --   1185.2473              1193.0451              1214.0729
 Red. masses --     11.9721                 1.5884                 4.4718
 Frc consts  --      9.9092                 1.3320                 3.8835
 IR Inten    --    215.8530                24.0231               180.7715

                     58                     59                     60
                      A                      A                      A
 Frequencies --   1292.6734              1298.4735              1329.4757
 Red. masses --      9.2973                 1.3441                12.1545
 Frc consts  --      9.1534                 1.3352                12.6575
 IR Inten    --     41.9212                 1.8303               303.0868

                     61                     62                     63
                      A                      A                      A
 Frequencies --   1347.4138              1348.4125              1367.3222
 Red. masses --      3.1983                11.8509                 6.9668
 Frc consts  --      3.4212                12.6954                 7.6740
 IR Inten    --      3.9334               244.9751                10.4712

                     64                     65                     66
                      A                      A                      A
 Frequencies --   1393.5798              1409.0862              1448.1035
 Red. masses --      1.3035                 1.5857                 1.1200
 Frc consts  --      1.4915                 1.8550                 1.3838
 IR Inten    --      7.2916                15.8250                44.9813

                     67                     68                     69
                      A                      A                      A
 Frequencies --   1449.8857              1452.3852              1458.7294
 Red. masses --      1.5320                 2.0864                 1.6408
 Frc consts  --      1.8975                 2.5931                 2.0571
 IR Inten    --     33.4711                42.3276               103.7115

                     70                     71                     72
                      A                      A                      A
 Frequencies --   1459.9344              1478.3426              1511.5997
 Red. masses --      1.6089                 1.1786                14.5890
 Frc consts  --      2.0205                 1.5176                19.6404
 IR Inten    --     95.5977                24.2427               325.3968

                     73                     74                     75
                      A                      A                      A
 Frequencies --   1546.7889              1678.8945              1695.0365
 Red. masses --      3.0731                 8.5210                 6.8713
 Frc consts  --      4.3320                14.1510                11.6317
 IR Inten    --     14.9062                19.5423                16.4261

                     76                     77                     78
                      A                      A                      A
 Frequencies --   1792.7636              1796.3897              3065.6540
 Red. masses --     10.1759                12.6717                 1.0386
 Frc consts  --     19.2695                24.0927                 5.7511
 IR Inten    --     49.4192               244.0971                 3.9091

                     79                     80                     81
                      A                      A                      A
 Frequencies --   3067.5993              3146.0171              3147.4389
 Red. masses --      1.0392                 1.1025                 1.1008
 Frc consts  --      5.7614                 6.4291                 6.4252
 IR Inten    --      6.5538                 2.5408                 3.7144

                     82                     83                     84
                      A                      A                      A
 Frequencies --   3183.8082              3203.2703              3222.7497
 Red. masses --      1.1042                 1.1029                 1.0926
 Frc consts  --      6.5945                 6.6679                 6.6857
 IR Inten    --      2.0553                 2.4024                 1.2268

                     85                     86                     87
                      A                      A                      A
 Frequencies --   3223.4816              3261.9694              3263.5722
 Red. masses --      1.0930                 1.0954                 1.0954
 Frc consts  --      6.6912                 6.8675                 6.8741
 IR Inten    --      0.6010                 6.7927                 6.4820

 - Thermochemistry -
 -------------------
 Temperature   298.150 Kelvin.  Pressure   1.00000 Atm.
 Atom     1 has atomic number  6 and mass  12.00000

 Molecular mass:   325.02318 amu.
 Principal axes and moments of inertia in atomic units:
                           1         2         3
     Eigenvalues --  2104.96255********************
           X            1.00000   0.00202  -0.00062
           Y           -0.00203   0.99989  -0.01475
           Z            0.00059   0.01475   0.99989
 This molecule is an asymmetric top.
 Rotational symmetry number  1.
 Warning -- assumption of classical behavior for rotation
           may cause significant error
 Rotational temperatures (Kelvin)      0.04115     0.00529     0.00506
 Rotational constants (GHZ):           0.85737     0.11020     0.10549
 Zero-point vibrational energy     563553.9 (Joules/Mol)
                                  134.69262 (Kcal/Mol)
 Warning -- explicit consideration of  32 degrees of freedom as
           vibrations may cause significant error
 Vibrational temperatures:     25.71    38.93    43.82    60.09    71.29
          (Kelvin)             92.26   100.18   165.70   206.91   216.54
                              226.80   271.48   283.10   295.50   372.70
                              391.70   416.54   434.94   474.73   498.17
                              544.53   568.44   605.03   611.59   675.18
                              707.57   765.58   776.53   805.28   830.36
                              838.81   860.68   905.41   928.40   945.79
                             1051.53  1069.32  1125.65  1134.32  1176.73
                             1257.31  1286.85  1300.25  1346.33  1435.36
                             1463.51  1476.86  1482.29  1498.94  1514.89
                             1568.34  1601.69  1637.49  1651.56  1705.31
                             1716.53  1746.78  1859.87  1868.21  1912.82
                             1938.63  1940.06  1967.27  2005.05  2027.36
                             2083.50  2086.06  2089.66  2098.79  2100.52
                             2127.01  2174.85  2225.48  2415.55  2438.78
                             2579.39  2584.60  4410.79  4413.59  4526.42
                             4528.46  4580.79  4608.79  4636.82  4637.87
                             4693.25  4695.55

 Zero-point correction=                           0.214646 (Hartree/Particle)
 Thermal correction to Energy=                    0.234606
 Thermal correction to Enthalpy=                  0.235550
 Thermal correction to Gibbs Free Energy=         0.162512
 Sum of electronic and zero-point Energies=          -1551.921725
 Sum of electronic and thermal Energies=             -1551.901766
 Sum of electronic and thermal Enthalpies=           -1551.900822
 Sum of electronic and thermal Free Energies=        -1551.973860

                     E (Thermal)             CV                S
                      KCal/Mol        Cal/Mol-Kelvin    Cal/Mol-Kelvin
 Total                  147.217             71.955            153.721
 Electronic               0.000              0.000              0.000
 Translational            0.889              2.981             43.232
 Rotational               0.889              2.981             34.733
 Vibrational            145.440             65.993             75.757
 Vibration     1          0.593              1.986              6.858
 Vibration     2          0.593              1.984              6.034
 Vibration     3          0.594              1.984              5.800
 Vibration     4          0.594              1.980              5.174
 Vibration     5          0.595              1.978              4.835
 Vibration     6          0.597              1.971              4.326
 Vibration     7          0.598              1.969              4.164
 Vibration     8          0.608              1.937              3.180
 Vibration     9          0.616              1.909              2.753
 Vibration    10          0.618              1.902              2.666
 Vibration    11          0.621              1.894              2.578
 Vibration    12          0.633              1.855              2.241
 Vibration    13          0.636              1.844              2.163
 Vibration    14          0.640              1.832              2.084
 Vibration    15          0.668              1.747              1.668
 Vibration    16          0.675              1.724              1.582
 Vibration    17          0.686              1.693              1.477
 Vibration    18          0.694              1.669              1.404
 Vibration    19          0.713              1.616              1.260
 Vibration    20          0.724              1.583              1.183
 Vibration    21          0.749              1.516              1.045
 Vibration    22          0.762              1.481              0.981
 Vibration    23          0.783              1.426              0.890
 Vibration    24          0.787              1.416              0.875
 Vibration    25          0.826              1.318              0.740
 Vibration    26          0.848              1.268              0.679
 Vibration    27          0.887              1.179              0.583
 Vibration    28          0.895              1.162              0.566
 Vibration    29          0.915              1.119              0.524
 Vibration    30          0.934              1.081              0.491
 Vibration    31          0.940              1.068              0.480
 Vibration    32          0.956              1.036              0.453

 Optimization completed.
    -- Stationary point found.
 Normal termination of Gaussian 16 at Fri Dec 31 10:44:40 2021.
