 Gaussian 16, Revision C.01,
 Gaussian 16:  ES64L-G16RevC.01  3-Jul-2019

 ------------------------------------------------------
 #N M062X/gen OPT FREQ=NoRaman Integral(Grid=UltraFine)
 ------------------------------------------------------

 ---------------------------------------
 E-isomer - CH: def2svp - NOSF: def2tzvp
 ---------------------------------------
 Symbolic Z-matrix:
 Charge =  0 Multiplicity = 1

 SCF Done:  E(RM062X) =  -1553.04738875     A.U. after   15 cycles
 SCF Done:  E(RM062X) =  -1553.14542290     A.U. after   16 cycles
 SCF Done:  E(RM062X) =  -1553.18018947     A.U. after   15 cycles
 SCF Done:  E(RM062X) =  -1553.18009873     A.U. after   17 cycles
 SCF Done:  E(RM062X) =  -1553.20484086     A.U. after   15 cycles
 SCF Done:  E(RM062X) =  -1553.20707745     A.U. after   16 cycles
 SCF Done:  E(RM062X) =  -1553.21066604     A.U. after   14 cycles
 SCF Done:  E(RM062X) =  -1553.20871790     A.U. after   15 cycles
 SCF Done:  E(RM062X) =  -1553.21079600     A.U. after   14 cycles
 SCF Done:  E(RM062X) =  -1553.21250861     A.U. after   14 cycles
 SCF Done:  E(RM062X) =  -1553.21491050     A.U. after   12 cycles
 SCF Done:  E(RM062X) =  -1553.21493447     A.U. after   12 cycles
 SCF Done:  E(RM062X) =  -1553.21494473     A.U. after   12 cycles
 SCF Done:  E(RM062X) =  -1553.21494992     A.U. after   11 cycles
 SCF Done:  E(RM062X) =  -1553.21495127     A.U. after   10 cycles
 SCF Done:  E(RM062X) =  -1553.21495155     A.U. after    8 cycles
 SCF Done:  E(RM062X) =  -1553.21495185     A.U. after    9 cycles
 SCF Done:  E(RM062X) =  -1553.21495189     A.U. after    8 cycles
 SCF Done:  E(RM062X) =  -1553.21495188     A.U. after    7 cycles
 Optimization completed.
    -- Stationary point found.
 Normal termination of Gaussian 16 at Fri Dec 31 11:12:36 2021.

 ------------------------------------------------------------------
 #N Geom=AllCheck Guess=TCheck SCRF=Check GenChk RM062X/ChkBas Freq
 ------------------------------------------------------------------

 Structure from the checkpoint file:  "E-isomer.chk"
 ---------------------------------------
 E-isomer - CH: def2svp - NOSF: def2tzvp
 ---------------------------------------
 Charge =  0 Multiplicity = 1

                         Standard orientation:
 ---------------------------------------------------------------------
 Center     Atomic      Atomic             Coordinates (Angstroms)
 Number     Number       Type             X           Y           Z
 ---------------------------------------------------------------------
      1          6           0       -3.367133   -0.964876   -0.673607
      2          6           0       -4.331033   -0.169685   -0.066560
      3          6           0       -4.011621    0.992324    0.626627
      4          6           0       -2.675195    1.365989    0.711637
      5          6           0       -1.672631    0.580683    0.124406
      6          6           0       -2.033672   -0.579945   -0.574451
      7          1           0       -3.669631   -1.860138   -1.214460
      8          1           0       -4.804678    1.580036    1.085978
      9          1           0       -2.403774    2.272020    1.255970
     10          1           0       -1.255779   -1.176251   -1.054776
     11          7           0       -5.748610   -0.571598   -0.163878
     12          8           0       -5.999766   -1.589120   -0.766756
     13          8           0       -6.568146    0.141955    0.366601
     14          6           0       -0.245085    0.996646    0.205711
     15          6           0        0.660314    0.164972    0.734708
     16          6           0        0.484811   -1.169818    1.374518
     17          1           0       -0.571100   -1.368103    1.587881
     18          1           0        0.871676   -1.968818    0.723250
     19          1           0        1.053398   -1.201697    2.315053
     20          6           0        0.109531    2.335986   -0.382486
     21          1           0        0.123564    2.266932   -1.481423
     22          1           0       -0.649442    3.084298   -0.115915
     23          1           0        1.089659    2.693420   -0.045063
     24         16           0        2.917718    0.442511   -0.518063
     25          8           0        3.630354    1.648971   -0.714242
     26          8           0        2.198082   -0.205277   -1.555927
     27          6           0        4.128408   -0.772900    0.151309
     28          9           0        4.746689   -0.267296    1.204609
     29          9           0        5.010907   -1.051661   -0.793086
     30          9           0        3.497062   -1.885121    0.506870
     31          8           0        2.014577    0.598441    0.760731
 ---------------------------------------------------------------------

 SCF Done:  E(RM062X) =  -1553.21495188     A.U. after    1 cycles

 The electronic state is 1-A.
 Alpha  occ. eigenvalues --  -90.15849 -25.32776 -25.32511 -25.32494 -19.72836
 Alpha  occ. eigenvalues --  -19.67166 -19.67112 -19.67109 -19.66849 -15.00847
 Alpha  occ. eigenvalues --  -10.86551 -10.65833 -10.63608 -10.61054 -10.60260
 Alpha  occ. eigenvalues --  -10.60228 -10.60219 -10.59928 -10.59820 -10.58563
 Alpha  occ. eigenvalues --  -10.57954  -8.48565  -6.40830  -6.40649  -6.40578
 Alpha  occ. eigenvalues --   -1.51727  -1.42542  -1.42456  -1.38431  -1.32975
 Alpha  occ. eigenvalues --   -1.22242  -1.19709  -1.18856  -1.01088  -0.96020
 Alpha  occ. eigenvalues --   -0.91316  -0.88302  -0.87842  -0.86215  -0.81375
 Alpha  occ. eigenvalues --   -0.79894  -0.76537  -0.74606  -0.74234  -0.73724
 Alpha  occ. eigenvalues --   -0.72666  -0.69455  -0.66674  -0.65736  -0.64164
 Alpha  occ. eigenvalues --   -0.63112  -0.62390  -0.61716  -0.61540  -0.60905
 Alpha  occ. eigenvalues --   -0.59526  -0.58111  -0.58051  -0.57128  -0.56536
 Alpha  occ. eigenvalues --   -0.55992  -0.55729  -0.54983  -0.53150  -0.52946
 Alpha  occ. eigenvalues --   -0.51236  -0.49827  -0.49730  -0.49116  -0.47916
 Alpha  occ. eigenvalues --   -0.47130  -0.46001  -0.45097  -0.44833  -0.44543
 Alpha  occ. eigenvalues --   -0.43250  -0.42459  -0.40158  -0.39396  -0.39352
 Alpha  occ. eigenvalues --   -0.36304  -0.34936  -0.32342
 Alpha virt. eigenvalues --   -0.06645  -0.01456   0.00381   0.03935   0.06218
 Alpha virt. eigenvalues --    0.07549   0.08566   0.09310   0.09670   0.10410
 Alpha virt. eigenvalues --    0.12240   0.12970   0.13537   0.14787   0.15615

 Mulliken charges:
               1
     1  C   -0.010388
     2  C    0.092690
     3  C   -0.012515
     4  C   -0.010084
     5  C   -0.034374
     6  C   -0.008748
     7  H    0.064233
     8  H    0.063351
     9  H    0.034912
    10  H    0.040374
    11  N    0.370083
    12  O   -0.322073
    13  O   -0.322688
    14  C   -0.158256
    15  C    0.052131
    16  C    0.049442
    17  H    0.072236
    18  H    0.082596
    19  H    0.071528
    20  C    0.058171
    21  H    0.080910
    22  H    0.054138
    23  H    0.084890
    24  S    0.700055
    25  O   -0.391619
    26  O   -0.394317
    27  C    0.699595
    28  F   -0.202389
    29  F   -0.203946
    30  F   -0.221568
    31  O   -0.378370
 Sum of Mulliken charges =  -0.00000

 Dipole moment (field-independent basis, Debye):
    X=              1.7541    Y=              0.3578    Z=              2.0163  Tot=              2.6964
 Quadrupole moment (field-independent basis, Debye-Ang):
   XX=           -170.8224   YY=           -122.6349   ZZ=           -126.8725
   XY=            -13.0270   XZ=              1.1974   YZ=              0.1428

  Exact polarizability:     233.034       1.919     149.637       1.268      12.216     114.782
 Approx polarizability:     240.796      -0.877     209.076       0.655      29.411     163.518

                      1                      2                      3
                      A                      A                      A
 Frequencies --     17.8920                29.0623                31.9822
 Red. masses --      7.3820                10.3089                 9.7287
 Frc consts  --      0.0014                 0.0051                 0.0059
 IR Inten    --      0.0262                 1.2902                 0.6586

                      4                      5                      6
                      A                      A                      A
 Frequencies --     46.5303                51.1958                67.2207
 Red. masses --      5.0059                12.2456                 5.8040
 Frc consts  --      0.0064                 0.0189                 0.0155
 IR Inten    --      0.2834                 1.0420                 1.1031

                      7                      8                      9
                      A                      A                      A
 Frequencies --     67.6834               114.8749               143.4877
 Red. masses --      5.5863                 2.9856                 1.5216
 Frc consts  --      0.0151                 0.0232                 0.0185
 IR Inten    --      0.4327                 2.1424                 0.5825

                     10                     11                     12
                      A                      A                      A
 Frequencies --    149.0610               160.3263               185.7308
 Red. masses --      7.3439                 4.0812                 3.9759
 Frc consts  --      0.0961                 0.0618                 0.0808
 IR Inten    --      0.9194                 0.0860                 1.9055

                     13                     14                     15
                      A                      A                      A
 Frequencies --    199.6276               232.0393               254.6440
 Red. masses --     15.4946                 1.1810                 6.2013
 Frc consts  --      0.3638                 0.0375                 0.2369
 IR Inten    --      2.5735                 0.8876                 3.0206

                     16                     17                     18
                      A                      A                      A
 Frequencies --    270.7716               286.0854               307.6358
 Red. masses --      4.4193                 4.8752                 5.2229
 Frc consts  --      0.1909                 0.2351                 0.2912
 IR Inten    --      4.8026                 0.3599                 0.9986

                     19                     20                     21
                      A                      A                      A
 Frequencies --    330.7756               346.3540               377.1999
 Red. masses --     15.9820                 6.5582                 4.8895
 Frc consts  --      1.0303                 0.4635                 0.4099
 IR Inten    --      0.5712                 3.0572                 0.0409

                     22                     23                     24
                      A                      A                      A
 Frequencies --    392.1848               424.4722               427.9832
 Red. masses --      5.6318                 2.9482                 6.1634
 Frc consts  --      0.5104                 0.3130                 0.6652
 IR Inten    --      4.3860                 0.1208                 6.7743

                     25                     26                     27
                      A                      A                      A
 Frequencies --    467.3257               499.2986               528.5377
 Red. masses --      6.3370                 6.5794                 7.6333
 Frc consts  --      0.8154                 0.9664                 1.2564
 IR Inten    --      2.9084                30.1453                 1.1279

                     28                     29                     30
                      A                      A                      A
 Frequencies --    538.8693               554.3796               573.6608
 Red. masses --      5.0377                 8.0899                 8.2940
 Frc consts  --      0.8619                 1.4649                 1.6082
 IR Inten    --      2.0052                 7.0888                 3.2669

                     31                     32                     33
                      A                      A                      A
 Frequencies --    581.3304               605.0056               628.8769
 Red. masses --      7.3906                 5.1836                 4.6132
 Frc consts  --      1.4716                 1.1179                 1.0749
 IR Inten    --      4.3833                54.9029                 3.4528

                     34                     35                     36
                      A                      A                      A
 Frequencies --    645.1127               661.9327               731.7042
 Red. masses --      6.1782                 7.5695                 3.5361
 Frc consts  --      1.5149                 1.9541                 1.1154
 IR Inten    --      4.2346               132.1519                10.9576

                     37                     38                     39
                      A                      A                      A
 Frequencies --    743.6153               790.5507               801.5960
 Red. masses --      5.8143                 9.9672                 4.2327
 Frc consts  --      1.8943                 3.6701                 1.6024
 IR Inten    --     19.8177                23.8465                18.8049

                     40                     41                     42
                      A                      A                      A
 Frequencies --    824.3577               872.1533               893.9214
 Red. masses --      5.9317                 1.2461                 8.6286
 Frc consts  --      2.3750                 0.5584                 4.0625
 IR Inten    --     74.7575                 0.1847               138.0641

                     43                     44                     45
                      A                      A                      A
 Frequencies --    902.4516               938.7830               999.4188
 Red. masses --      1.9175                 2.7372                 2.2577
 Frc consts  --      0.9201                 1.4213                 1.3286
 IR Inten    --     28.5960               111.2188               184.0174

                     46                     47                     48
                      A                      A                      A
 Frequencies --   1018.5219              1026.2825              1029.9667
 Red. masses --      1.4039                 1.3927                 2.5908
 Frc consts  --      0.8581                 0.8643                 1.6193
 IR Inten    --      0.8446                 1.3087                 9.0704

                     49                     50                     51
                      A                      A                      A
 Frequencies --   1042.5533              1054.0427              1085.3299
 Red. masses --      1.5898                 1.5090                 1.9598
 Frc consts  --      1.0181                 0.9878                 1.3601
 IR Inten    --      0.7052                 0.7999                96.3189

                     52                     53                     54
                      A                      A                      A
 Frequencies --   1114.7548              1138.0093              1143.9403
 Red. masses --      1.2909                 2.4103                 2.1077
 Frc consts  --      0.9451                 1.8391                 1.6250
 IR Inten    --     12.7754                46.2752                26.6565

                     55                     56                     57
                      A                      A                      A
 Frequencies --   1189.7973              1194.3364              1202.6857
 Red. masses --      2.0776                 3.1541                 5.0161
 Frc consts  --      1.7328                 2.6508                 4.2748
 IR Inten    --     81.1719               110.6011               168.7420

                     58                     59                     60
                      A                      A                      A
 Frequencies --   1290.4688              1299.7689              1304.2033
 Red. masses --     12.3472                 1.3343                11.2414
 Frc consts  --     12.1147                 1.3282                11.2658
 IR Inten    --    170.7717                 7.2645                96.1718

                     61                     62                     63
                      A                      A                      A
 Frequencies --   1311.6337              1345.0752              1365.9683
 Red. masses --     13.1493                 3.2707                 7.0925
 Frc consts  --     13.3284                 3.4865                 7.7971
 IR Inten    --    327.8521                 4.6106                13.4410

                     64                     65                     66
                      A                      A                      A
 Frequencies --   1394.5963              1409.7622              1448.0529
 Red. masses --      1.3022                 1.5142                 1.2543
 Frc consts  --      1.4922                 1.7731                 1.5496
 IR Inten    --      8.6313                12.8551                22.9051

                     67                     68                     69
                      A                      A                      A
 Frequencies --   1451.8427              1455.2384              1461.5693
 Red. masses --      2.1314                 1.1010                 1.0894
 Frc consts  --      2.6470                 1.3738                 1.3712
 IR Inten    --      9.8609                 0.4280                 2.1621

                     70                     71                     72
                      A                      A                      A
 Frequencies --   1466.2406              1467.3653              1484.4924
 Red. masses --      1.4471                 3.7403                 7.5533
 Frc consts  --      1.8330                 4.7449                 9.8072
 IR Inten    --    193.0025               237.5710               203.2000

                     73                     74                     75
                      A                      A                      A
 Frequencies --   1546.2773              1658.8863              1693.8756
 Red. masses --      3.0296                10.2367                 6.8301
 Frc consts  --      4.2679                16.5975                11.5462
 IR Inten    --      8.1154               153.5977                20.3114

                     76                     77                     78
                      A                      A                      A
 Frequencies --   1715.8326              1796.3139              3066.0550
 Red. masses --     10.6961                 9.6426                 1.0393
 Frc consts  --     18.5535                18.3319                 5.7564
 IR Inten    --    190.6391                27.5516                 0.6340

                     79                     80                     81
                      A                      A                      A
 Frequencies --   3066.6276              3146.0493              3146.4545
 Red. masses --      1.0394                 1.1020                 1.1008
 Frc consts  --      5.7590                 6.4264                 6.4208
 IR Inten    --      7.7445                 2.9698                 3.0655

                     82                     83                     84
                      A                      A                      A
 Frequencies --   3187.3893              3199.2332              3223.2800
 Red. masses --      1.1041                 1.1027                 1.0931
 Frc consts  --      6.6089                 6.6496                 6.6912
 IR Inten    --      2.0408                 2.1332                 0.2497

                     85                     86                     87
                      A                      A                      A
 Frequencies --   3223.7306              3262.5397              3264.5122
 Red. masses --      1.0926                 1.0954                 1.0954
 Frc consts  --      6.6902                 6.8698                 6.8779
 IR Inten    --      1.2799                 6.9199                 6.6341

 - Thermochemistry -
 -------------------
 Temperature   298.150 Kelvin.  Pressure   1.00000 Atm.
 Atom     1 has atomic number  6 and mass  12.00000

 Molecular mass:   325.02318 amu.
 Principal axes and moments of inertia in atomic units:
                           1         2         3
     Eigenvalues --  2062.03324********************
           X            1.00000   0.00170  -0.00099
           Y           -0.00171   0.99996  -0.00828
           Z            0.00097   0.00828   0.99997
 This molecule is an asymmetric top.
 Rotational symmetry number  1.
 Warning -- assumption of classical behavior for rotation
           may cause significant error
 Rotational temperatures (Kelvin)      0.04200     0.00520     0.00499
 Rotational constants (GHZ):           0.87522     0.10837     0.10393
 Zero-point vibrational energy     562790.7 (Joules/Mol)
                                  134.51021 (Kcal/Mol)
 Warning -- explicit consideration of  32 degrees of freedom as
           vibrations may cause significant error
 Vibrational temperatures:     25.74    41.81    46.02    66.95    73.66
          (Kelvin)             96.72    97.38   165.28   206.45   214.47
                              230.67   267.23   287.22   333.85   366.38
                              389.58   411.61   442.62   475.91   498.33
                              542.71   564.27   610.72   615.77   672.38
                              718.38   760.45   775.31   797.63   825.37
                              836.40   870.47   904.81   928.17   952.37
                             1052.76  1069.90  1137.43  1153.32  1186.07
                             1254.83  1286.15  1298.43  1350.70  1437.94
                             1465.43  1476.59  1481.89  1500.00  1516.53
                             1561.55  1603.88  1637.34  1645.88  1711.85
                             1718.38  1730.40  1856.70  1870.08  1876.46
                             1887.15  1935.26  1965.32  2006.51  2028.33
                             2083.43  2088.88  2093.76  2102.87  2109.59
                             2111.21  2135.85  2224.75  2386.77  2437.11
                             2468.70  2584.50  4411.37  4412.19  4526.46
                             4527.05  4585.94  4602.98  4637.58  4638.23
                             4694.07  4696.90

 Zero-point correction=                           0.214356 (Hartree/Particle)
 Thermal correction to Energy=                    0.234249
 Thermal correction to Enthalpy=                  0.235193
 Thermal correction to Gibbs Free Energy=         0.162518
 Sum of electronic and zero-point Energies=          -1553.000596
 Sum of electronic and thermal Energies=             -1552.980703
 Sum of electronic and thermal Enthalpies=           -1552.979759
 Sum of electronic and thermal Free Energies=        -1553.052433

                     E (Thermal)             CV                S
                      KCal/Mol        Cal/Mol-Kelvin    Cal/Mol-Kelvin
 Total                  146.993             71.910            152.957
 Electronic               0.000              0.000              0.000
 Translational            0.889              2.981             43.232
 Rotational               0.889              2.981             34.743
 Vibrational            145.216             65.949             74.982
 Vibration     1          0.593              1.986              6.855
 Vibration     2          0.593              1.984              5.892
 Vibration     3          0.594              1.983              5.703
 Vibration     4          0.595              1.979              4.960
 Vibration     5          0.595              1.977              4.771
 Vibration     6          0.598              1.970              4.233
 Vibration     7          0.598              1.970              4.220
 Vibration     8          0.608              1.937              3.185
 Vibration     9          0.616              1.910              2.757
 Vibration    10          0.618              1.904              2.684
 Vibration    11          0.622              1.891              2.546
 Vibration    12          0.632              1.859              2.270
 Vibration    13          0.638              1.840              2.137
 Vibration    14          0.653              1.792              1.863
 Vibration    15          0.665              1.755              1.698
 Vibration    16          0.674              1.727              1.591
 Vibration    17          0.684              1.700              1.497
 Vibration    18          0.698              1.659              1.375
 Vibration    19          0.713              1.614              1.256
 Vibration    20          0.724              1.583              1.183
 Vibration    21          0.748              1.519              1.050
 Vibration    22          0.760              1.487              0.992
 Vibration    23          0.786              1.417              0.877
 Vibration    24          0.789              1.409              0.865
 Vibration    25          0.825              1.323              0.745
 Vibration    26          0.855              1.252              0.660
 Vibration    27          0.883              1.187              0.590
 Vibration    28          0.894              1.164              0.568
 Vibration    29          0.910              1.130              0.535
 Vibration    30          0.930              1.088              0.497
 Vibration    31          0.938              1.072              0.483
 Vibration    32          0.964              1.021              0.441

 Optimization completed.
    -- Stationary point found.
 Normal termination of Gaussian 16 at Fri Dec 31 11:35:01 2021.
