 Gaussian 16, Revision C.01,
 Gaussian 16:  ES64L-G16RevC.01  3-Jul-2019

 ----------------------------------------------------------------------
 #N M062X/def2svp OPT FREQ=NoRaman temperature=273.15 Integral(Grid=Ult
 raFine)
 ----------------------------------------------------------------------

 ---------
 Endo-dcpd
 ---------
 Symbolic Z-matrix:
 Charge =  0 Multiplicity = 1

 SCF Done:  E(RM062X) =  -387.714844768     A.U. after   14 cycles
 SCF Done:  E(RM062X) =  -387.747093242     A.U. after   13 cycles
 SCF Done:  E(RM062X) =  -387.759553027     A.U. after   13 cycles
 SCF Done:  E(RM062X) =  -387.767003355     A.U. after   13 cycles
 SCF Done:  E(RM062X) =  -387.771295326     A.U. after   12 cycles
 SCF Done:  E(RM062X) =  -387.772014247     A.U. after   12 cycles
 SCF Done:  E(RM062X) =  -387.772110138     A.U. after   10 cycles
 SCF Done:  E(RM062X) =  -387.772130304     A.U. after   10 cycles
 SCF Done:  E(RM062X) =  -387.772134154     A.U. after    8 cycles
 SCF Done:  E(RM062X) =  -387.772134886     A.U. after    8 cycles
 Optimization completed.
    -- Stationary point found.
 Normal termination of Gaussian 16 at Mon Dec 27 18:46:40 2021.

 -------------------------------------------------------------------
 #N Geom=AllCheck Guess=TCheck SCRF=Check GenChk RM062X/def2SVP Freq
 -------------------------------------------------------------------

 Structure from the checkpoint file:  "axMeCyhex.chk"
 ---------
 Endo-dcpd
 ---------
 Charge =  0 Multiplicity = 1

                         Standard orientation:
 ---------------------------------------------------------------------
 Center     Atomic      Atomic             Coordinates (Angstroms)
 Number     Number       Type             X           Y           Z
 ---------------------------------------------------------------------
      1          6           0       -0.979968    0.667179    1.294322
      2          6           0       -1.025042    1.135500   -0.149985
      3          6           0       -1.089885   -1.114716   -0.164814
      4          6           0       -1.014535   -0.670793    1.283704
      5          1           0       -0.838296    1.310078    2.163334
      6          1           0       -0.896122   -1.334805    2.140052
      7          6           0       -1.918856    0.039293   -0.762801
      8          1           0       -1.919660    0.045956   -1.863610
      9          1           0       -2.949257    0.066514   -0.383623
     10          6           0        0.346306    0.765220   -0.802215
     11          6           0        0.301539   -0.799201   -0.821071
     12          1           0       -1.329271    2.177269   -0.310678
     13          1           0       -1.448194   -2.135830   -0.342711
     14          6           0        1.532600   -1.210074   -0.062605
     15          1           0        1.803616   -2.253385    0.112884
     16          6           0        1.623306    1.159619   -0.027360
     17          1           0        2.320578    1.742277   -0.650243
     18          1           0        1.399162    1.784499    0.853539
     19          6           0        2.231188   -0.160956    0.377019
     20          1           0        3.148654   -0.230519    0.965542
     21          1           0        0.368260    1.167420   -1.824388
     22          1           0        0.300606   -1.205904   -1.845260
 ---------------------------------------------------------------------

 SCF Done:  E(RM062X) =  -387.772134886     A.U. after    1 cycles

 The electronic state is 1-A.
 Alpha  occ. eigenvalues --  -10.55429 -10.55354 -10.55131 -10.55035 -10.54612
 Alpha  occ. eigenvalues --  -10.54577 -10.54393 -10.54346 -10.54221 -10.54107
 Alpha  occ. eigenvalues --   -0.98662  -0.90569  -0.81840  -0.80980  -0.75776
 Alpha  occ. eigenvalues --   -0.74653  -0.63532  -0.63210  -0.60617  -0.58682
 Alpha  occ. eigenvalues --   -0.56567  -0.55395  -0.53339  -0.48087  -0.45842
 Alpha  occ. eigenvalues --   -0.45070  -0.43312  -0.42565  -0.40586  -0.40278
 Alpha  occ. eigenvalues --   -0.38985  -0.37684  -0.37387  -0.36265  -0.29300
 Alpha  occ. eigenvalues --   -0.29141
 Alpha virt. eigenvalues --    0.05091   0.06366   0.09513   0.12401   0.13416
 Alpha virt. eigenvalues --    0.14077   0.15326   0.16156   0.16836   0.17481
 Alpha virt. eigenvalues --    0.18929   0.19635   0.20157   0.20843   0.21115

 Mulliken charges:
               1
     1  C   -0.032183
     2  C   -0.121220
     3  C   -0.137155
     4  C    0.009576
     5  H    0.022048
     6  H    0.021009
     7  C    0.086319
     8  H    0.027212
     9  H    0.041035
    10  C   -0.122037
    11  C   -0.032732
    12  H    0.022189
    13  H    0.020804
    14  C    0.011985
    15  H    0.020377
    16  C    0.121283
    17  H    0.042114
    18  H    0.033665
    19  C   -0.122444
    20  H    0.023426
    21  H    0.028521
    22  H    0.036210
 Sum of Mulliken charges =  -0.00000

 Dipole moment (field-independent basis, Debye):
    X=              0.1116    Y=              0.0899    Z=             -0.1816  Tot=              0.2313
 Quadrupole moment (field-independent basis, Debye-Ang):
   XX=            -62.0518   YY=            -58.1780   ZZ=            -59.9467
   XY=              0.5378   XZ=              1.5844   YZ=             -0.0255

  Exact polarizability:      95.379       4.259      99.353       5.282       1.537      84.666
 Approx polarizability:     109.625       8.603     136.551       6.044       4.931     108.244

                      1                      2                      3
                      A                      A                      A
 Frequencies --    146.6609               201.1292               331.8714
 Red. masses --      2.7671                 3.5904                 2.2881
 Frc consts  --      0.0351                 0.0856                 0.1485
 IR Inten    --      0.1032                 0.0910                 0.1640

                      4                      5                      6
                      A                      A                      A
 Frequencies --    387.1132               470.1996               476.9346
 Red. masses --      3.0131                 1.9688                 3.4108
 Frc consts  --      0.2660                 0.2565                 0.4571
 IR Inten    --      0.6575                 0.5782                 0.0732

                      7                      8                      9
                      A                      A                      A
 Frequencies --    491.8198               637.5647               698.3872
 Red. masses --      2.0309                 3.6780                 2.0351
 Frc consts  --      0.2894                 0.8809                 0.5848
 IR Inten    --     11.5728                 0.1577                 7.4357

                     10                     11                     12
                      A                      A                      A
 Frequencies --    717.9144               748.7095               779.1828
 Red. masses --      2.9483                 2.0957                 1.9633
 Frc consts  --      0.8953                 0.6922                 0.7023
 IR Inten    --      5.0287                16.0606                39.2772

                     13                     14                     15
                      A                      A                      A
 Frequencies --    801.2441               821.8129               842.0855
 Red. masses --      3.4384                 3.2927                 2.2765
 Frc consts  --      1.3006                 1.3102                 0.9511
 IR Inten    --      0.1510                 8.5633                 8.4052

                     16                     17                     18
                      A                      A                      A
 Frequencies --    894.8745               915.4321               937.2014
 Red. masses --      3.3800                 1.7573                 1.9504
 Frc consts  --      1.5948                 0.8677                 1.0093
 IR Inten    --      0.1683                 0.8054                 5.9525

                     19                     20                     21
                      A                      A                      A
 Frequencies --    958.9932               965.9588               973.8093
 Red. masses --      1.9694                 1.6849                 2.0197
 Frc consts  --      1.0671                 0.9263                 1.1285
 IR Inten    --      4.6672                 1.6492                 0.2750

                     22                     23                     24
                      A                      A                      A
 Frequencies --    975.1810               980.7926               999.8040
 Red. masses --      1.8156                 1.4127                 1.3868
 Frc consts  --      1.0173                 0.8007                 0.8168
 IR Inten    --      1.3046                 2.5430                 0.2473

                     25                     26                     27
                      A                      A                      A
 Frequencies --   1017.2754              1049.2935              1057.7978
 Red. masses --      1.7603                 1.7711                 1.6323
 Frc consts  --      1.0733                 1.1489                 1.0761
 IR Inten    --      2.4904                 2.3768                 0.1869

                     28                     29                     30
                      A                      A                      A
 Frequencies --   1092.3054              1103.4858              1110.3168
 Red. masses --      1.3773                 1.5173                 1.1447
 Frc consts  --      0.9682                 1.0886                 0.8314
 IR Inten    --      1.3693                 0.9696                 1.2722

                     31                     32                     33
                      A                      A                      A
 Frequencies --   1134.8334              1160.1581              1179.1079
 Red. masses --      1.0880                 1.4236                 1.2771
 Frc consts  --      0.8255                 1.1290                 1.0462
 IR Inten    --      0.1112                 2.9383                 1.9424

                     34                     35                     36
                      A                      A                      A
 Frequencies --   1200.3863              1254.0817              1272.8098
 Red. masses --      2.0623                 1.4558                 1.4303
 Frc consts  --      1.7508                 1.3490                 1.3652
 IR Inten    --      0.1400                 0.9427                 1.8754

                     37                     38                     39
                      A                      A                      A
 Frequencies --   1275.5197              1284.5606              1291.9335
 Red. masses --      1.4358                 1.4967                 1.4494
 Frc consts  --      1.3764                 1.4551                 1.4254
 IR Inten    --      2.4237                 2.6630                 2.0545

                     40                     41                     42
                      A                      A                      A
 Frequencies --   1302.0646              1332.3436              1340.7263
 Red. masses --      1.8112                 1.7300                 1.8234
 Frc consts  --      1.8092                 1.8093                 1.9312
 IR Inten    --      0.3126                 1.0364                 1.9904

                     43                     44                     45
                      A                      A                      A
 Frequencies --   1371.2937              1386.3767              1458.2346
 Red. masses --      1.9097                 1.9735                 1.1073
 Frc consts  --      2.1158                 2.2348                 1.3873
 IR Inten    --      9.9880                 0.8151                 7.1004

                     46                     47                     48
                      A                      A                      A
 Frequencies --   1471.9128              1689.6158              1731.2316
 Red. masses --      1.1274                 6.2672                 6.8519
 Frc consts  --      1.4391                10.5415                12.0997
 IR Inten    --      4.2313                 0.5037                 0.7534

                     49                     50                     51
                      A                      A                      A
 Frequencies --   3058.5194              3073.5139              3081.8433
 Red. masses --      1.0622                 1.0862                 1.0625
 Frc consts  --      5.8543                 6.0452                 5.9455
 IR Inten    --     28.7306                16.3114                35.0733

                     52                     53                     54
                      A                      A                      A
 Frequencies --   3095.9358              3112.4299              3140.1830
 Red. masses --      1.1023                 1.0901                 1.0892
 Frc consts  --      6.2249                 6.2219                 6.3282
 IR Inten    --      7.5069                34.2356                43.7196

                     55                     56                     57
                      A                      A                      A
 Frequencies --   3146.1716              3154.3616              3207.3565
 Red. masses --      1.0916                 1.1076                 1.0862
 Frc consts  --      6.3663                 6.4934                 6.5835
 IR Inten    --     20.6036                23.8252                 3.2406

                     58                     59                     60
                      A                      A                      A
 Frequencies --   3229.5151              3231.2242              3253.8097
 Red. masses --      1.0877                 1.1060                 1.1087
 Frc consts  --      6.6838                 6.8035                 6.9160
 IR Inten    --      1.6250                17.0711                 6.7481

 - Thermochemistry -
 -------------------
 Temperature   273.150 Kelvin.  Pressure   1.00000 Atm.
 Atom     1 has atomic number  6 and mass  12.00000

 Molecular mass:   132.09390 amu.
 Principal axes and moments of inertia in atomic units:
                           1         2         3
     Eigenvalues --   728.672661224.629261331.62715
           X            0.99969   0.01310   0.02109
           Y           -0.01308   0.99991  -0.00130
           Z           -0.02110   0.00102   0.99978
 This molecule is an asymmetric top.
 Rotational symmetry number  1.
 Warning -- assumption of classical behavior for rotation
           may cause significant error
 Rotational temperatures (Kelvin)      0.11887     0.07073     0.06504
 Rotational constants (GHZ):           2.47675     1.47370     1.35529
 Zero-point vibrational energy     511446.7 (Joules/Mol)
                                  122.23869 (Kcal/Mol)
 Warning -- explicit consideration of   7 degrees of freedom as
           vibrations may cause significant error
 Vibrational temperatures:    211.01   289.38   477.49   556.97   676.51
          (Kelvin)            686.20   707.62   917.31  1004.82  1032.92
                             1077.23  1121.07  1152.81  1182.41  1211.57
                             1287.52  1317.10  1348.42  1379.78  1389.80
                             1401.09  1403.07  1411.14  1438.49  1463.63
                             1509.70  1521.94  1571.58  1587.67  1597.50
                             1632.77  1669.21  1696.47  1727.09  1804.34
                             1831.29  1835.19  1848.20  1858.80  1873.38
                             1916.95  1929.01  1972.99  1994.69  2098.07
                             2117.75  2430.98  2490.86  4400.53  4422.10
                             4434.09  4454.36  4478.09  4518.02  4526.64
                             4538.42  4614.67  4646.55  4649.01  4681.51

 Zero-point correction=                           0.194800 (Hartree/Particle)
 Thermal correction to Energy=                    0.200626
 Thermal correction to Enthalpy=                  0.201491
 Thermal correction to Gibbs Free Energy=         0.166846
 Sum of electronic and zero-point Energies=           -387.577335
 Sum of electronic and thermal Energies=              -387.571508
 Sum of electronic and thermal Enthalpies=            -387.570643
 Sum of electronic and thermal Free Energies=         -387.605289

                     E (Thermal)             CV                S
                      KCal/Mol        Cal/Mol-Kelvin    Cal/Mol-Kelvin
 Total                  125.895             27.282             79.592
 Electronic               0.000              0.000              0.000
 Translational            0.814              2.981             40.113
 Rotational               0.814              2.981             28.304
 Vibrational            124.267             21.320             11.175
 Vibration     1          0.570              1.891              2.549
 Vibration     2          0.593              1.811              1.963
 Vibration     3          0.674              1.550              1.112
 Vibration     4          0.719              1.421              0.883
 Vibration     5          0.795              1.221              0.626
 Vibration     6          0.802              1.204              0.609
 Vibration     7          0.817              1.169              0.572

                           ! Non-Optimized Parameters !
 Normal termination of Gaussian 16 at Mon Dec 27 18:49:30 2021.
