 Gaussian 16, Revision C.01,
 Gaussian 16:  ES64L-G16RevC.01  3-Jul-2019

 ----------------------------------------------------------
 #N M062X/def2svp OPT FREQ=NoRaman Integral(Grid=UltraFine)
 ----------------------------------------------------------

 -----------------------
 Z-isomer - all: def2svp
 -----------------------
 Symbolic Z-matrix:
 Charge =  0 Multiplicity = 1

 SCF Done:  E(RM062X) =  -1552.04149926     A.U. after   16 cycles
 SCF Done:  E(RM062X) =  -1552.08287015     A.U. after   17 cycles
 SCF Done:  E(RM062X) =  -1552.11237087     A.U. after   15 cycles
 SCF Done:  E(RM062X) =  -1552.11877227     A.U. after   17 cycles
 SCF Done:  E(RM062X) =  -1552.11766128     A.U. after   16 cycles
 SCF Done:  E(RM062X) =  -1552.12403632     A.U. after   15 cycles
 SCF Done:  E(RM062X) =  -1552.12913574     A.U. after   14 cycles
 SCF Done:  E(RM062X) =  -1552.13172815     A.U. after   17 cycles
 SCF Done:  E(RM062X) =  -1552.13217251     A.U. after   16 cycles
 SCF Done:  E(RM062X) =  -1552.12671340     A.U. after   17 cycles
 SCF Done:  E(RM062X) =  -1552.13583076     A.U. after   13 cycles
 SCF Done:  E(RM062X) =  -1552.13584999     A.U. after   12 cycles
 SCF Done:  E(RM062X) =  -1552.13585977     A.U. after   12 cycles
 SCF Done:  E(RM062X) =  -1552.13586467     A.U. after   11 cycles
 SCF Done:  E(RM062X) =  -1552.13586749     A.U. after   10 cycles
 SCF Done:  E(RM062X) =  -1552.13586983     A.U. after   10 cycles
 SCF Done:  E(RM062X) =  -1552.13587047     A.U. after   10 cycles
 SCF Done:  E(RM062X) =  -1552.13587084     A.U. after    9 cycles
 SCF Done:  E(RM062X) =  -1552.13587087     A.U. after    7 cycles
 Optimization completed.
    -- Stationary point found.
 Normal termination of Gaussian 16 at Fri Dec 31 10:47:11 2021.

 -------------------------------------------------------------------
 #N Geom=AllCheck Guess=TCheck SCRF=Check GenChk RM062X/def2SVP Freq
 -------------------------------------------------------------------

 Structure from the checkpoint file:  "Z-isomer.chk"
 -----------------------
 Z-isomer - all: def2svp
 -----------------------
 Charge =  0 Multiplicity = 1

                         Standard orientation:
 ---------------------------------------------------------------------
 Center     Atomic      Atomic             Coordinates (Angstroms)
 Number     Number       Type             X           Y           Z
 ---------------------------------------------------------------------
      1          6           0       -2.580336    0.215933   -1.280160
      2          6           0       -3.137692   -0.145291   -0.059842
      3          6           0       -2.629279    0.293897    1.155712
      4          6           0       -1.517409    1.129512    1.142875
      5          6           0       -0.926648    1.508713   -0.069162
      6          6           0       -1.467138    1.048047   -1.276344
      7          1           0       -3.017368   -0.164345   -2.201749
      8          1           0       -3.099294   -0.031392    2.082116
      9          1           0       -1.077202    1.461068    2.084791
     10          1           0       -0.993988    1.331705   -2.217464
     11          7           0       -4.315568   -1.037999   -0.054807
     12          8           0       -4.737896   -1.404353   -1.124159
     13          8           0       -4.779193   -1.338048    1.018100
     14          6           0        0.303733    2.354391   -0.058865
     15          6           0        1.472322    1.805092   -0.412217
     16          6           0        2.846570    2.379744   -0.437639
     17          1           0        2.845320    3.457207   -0.248536
     18          1           0        3.461854    1.882978    0.328129
     19          1           0        3.312708    2.189134   -1.415015
     20          6           0        0.139227    3.777423    0.391890
     21          1           0       -0.572422    4.298981   -0.265206
     22          1           0       -0.286152    3.801476    1.406652
     23          1           0        1.082215    4.334567    0.401720
     24         16           0        1.278347   -0.709942    0.300883
     25          8           0        0.212640   -1.578437   -0.106077
     26          8           0        1.391278   -0.149467    1.622530
     27          6           0        2.863051   -1.588818   -0.052855
     28          9           0        2.866087   -2.029383   -1.291413
     29          9           0        2.975349   -2.599467    0.782864
     30          9           0        3.871376   -0.754034    0.123577
     31          8           0        1.473927    0.450026   -0.808084
 ---------------------------------------------------------------------

 SCF Done:  E(RM062X) =  -1552.13587087     A.U. after    1 cycles

 The electronic state is 1-A.
 Alpha  occ. eigenvalues --  -90.18511 -25.32950 -25.32703 -25.32654 -19.72206
 Alpha  occ. eigenvalues --  -19.67226 -19.66929 -19.66144 -19.66140 -15.00380
 Alpha  occ. eigenvalues --  -10.85285 -10.64893 -10.61944 -10.59772 -10.59542
 Alpha  occ. eigenvalues --  -10.58869 -10.58824 -10.58672 -10.58615 -10.58202
 Alpha  occ. eigenvalues --  -10.58063  -8.51766  -6.44266  -6.44120  -6.44028
 Alpha  occ. eigenvalues --   -1.49947  -1.39957  -1.39909  -1.36139  -1.30609
 Alpha  occ. eigenvalues --   -1.19752  -1.17331  -1.16449  -0.99790  -0.94955
 Alpha  occ. eigenvalues --   -0.90304  -0.87814  -0.86480  -0.84928  -0.80827
 Alpha  occ. eigenvalues --   -0.78896  -0.76093  -0.73987  -0.73858  -0.72607
 Alpha  occ. eigenvalues --   -0.71701  -0.67588  -0.65053  -0.64451  -0.63135
 Alpha  occ. eigenvalues --   -0.62085  -0.61539  -0.60999  -0.60094  -0.59737
 Alpha  occ. eigenvalues --   -0.59507  -0.57530  -0.57412  -0.56003  -0.55270
 Alpha  occ. eigenvalues --   -0.55070  -0.54601  -0.53645  -0.51898  -0.51751
 Alpha  occ. eigenvalues --   -0.51304  -0.49678  -0.48849  -0.48408  -0.47446
 Alpha  occ. eigenvalues --   -0.46362  -0.44924  -0.44055  -0.43497  -0.43111
 Alpha  occ. eigenvalues --   -0.41677  -0.41035  -0.38540  -0.37768  -0.37567
 Alpha  occ. eigenvalues --   -0.34749  -0.33529  -0.31725
 Alpha virt. eigenvalues --   -0.04989  -0.00069   0.01317   0.04393   0.07514
 Alpha virt. eigenvalues --    0.07714   0.09003   0.09987   0.10707   0.11175
 Alpha virt. eigenvalues --    0.12054   0.13200   0.13682   0.15697   0.16744

 Mulliken charges:
               1
     1  C   -0.009801
     2  C    0.152274
     3  C   -0.013908
     4  C   -0.006567
     5  C   -0.078769
     6  C    0.018294
     7  H    0.048327
     8  H    0.048838
     9  H    0.039071
    10  H    0.029047
    11  N    0.235658
    12  O   -0.251910
    13  O   -0.251906
    14  C   -0.148675
    15  C    0.031972
    16  C    0.040773
    17  H    0.048437
    18  H    0.067066
    19  H    0.069267
    20  C    0.041515
    21  H    0.063665
    22  H    0.062200
    23  H    0.044595
    24  S    0.942342
    25  O   -0.413661
    26  O   -0.435349
    27  C    0.557553
    28  F   -0.151419
    29  F   -0.154588
    30  F   -0.163683
    31  O   -0.460658
 Sum of Mulliken charges =  -0.00000

 Dipole moment (field-independent basis, Debye):
    X=              4.7747    Y=              5.2313    Z=             -0.6059  Tot=              7.1085
 Quadrupole moment (field-independent basis, Debye-Ang):
   XX=           -142.1896   YY=           -119.4034   ZZ=           -124.8467
   XY=             -7.3975   XZ=             -2.3608   YZ=             -0.1969

  Exact polarizability:     178.839      26.784     139.685      -4.728       4.066     134.289
 Approx polarizability:     200.055      33.767     169.081      -5.324       9.486     213.423

                      1                      2                      3
                      A                      A                      A
 Frequencies --     27.1507                38.0283                39.1846
 Red. masses --     12.9807                15.2248                 9.4516
 Frc consts  --      0.0056                 0.0130                 0.0086
 IR Inten    --      0.2062                 0.0961                 0.0148

                      4                      5                      6
                      A                      A                      A
 Frequencies --     48.5611                67.7988                72.1739
 Red. masses --     12.1284                 4.6733                 3.9322
 Frc consts  --      0.0169                 0.0127                 0.0121
 IR Inten    --      0.5130                 0.0753                 0.0816

                      7                      8                      9
                      A                      A                      A
 Frequencies --     79.2113               113.4024               123.4559
 Red. masses --      6.9061                 4.4531                 6.4225
 Frc consts  --      0.0255                 0.0337                 0.0577
 IR Inten    --      0.0389                 0.2989                 4.5601

                     10                     11                     12
                      A                      A                      A
 Frequencies --    151.4215               167.6480               178.8905
 Red. masses --      1.0427                 4.4264                 1.1561
 Frc consts  --      0.0141                 0.0733                 0.0218
 IR Inten    --      0.4367                 0.1183                 0.3113

                     13                     14                     15
                      A                      A                      A
 Frequencies --    199.2784               202.1676               239.5843
 Red. masses --      6.7708                13.4723                 4.3262
 Frc consts  --      0.1584                 0.3244                 0.1463
 IR Inten    --      1.8946                 4.3904                 1.4601

                     16                     17                     18
                      A                      A                      A
 Frequencies --    270.8347               285.9293               307.1821
 Red. masses --      7.5294                 7.1735                 4.7373
 Frc consts  --      0.3254                 0.3455                 0.2634
 IR Inten    --      7.1089                 1.8130                 0.7945

                     19                     20                     21
                      A                      A                      A
 Frequencies --    330.6385               340.7662               363.4228
 Red. masses --     14.9951                 6.1200                 4.9090
 Frc consts  --      0.9658                 0.4187                 0.3820
 IR Inten    --      1.1657                 2.0124                 1.0405

                     22                     23                     24
                      A                      A                      A
 Frequencies --    397.9520               416.2704               419.0136
 Red. masses --      7.5935                 3.2155                 4.0832
 Frc consts  --      0.7085                 0.3283                 0.4224
 IR Inten    --      2.2466                 0.8536                 3.5741

                     25                     26                     27
                      A                      A                      A
 Frequencies --    462.5857               488.2496               525.7403
 Red. masses --      6.0120                 7.2860                 7.4310
 Frc consts  --      0.7580                 1.0233                 1.2102
 IR Inten    --      7.5662                21.9132                14.4737

                     28                     29                     30
                      A                      A                      A
 Frequencies --    544.1326               555.3903               569.9607
 Red. masses --      6.0828                 4.0536                10.8479
 Frc consts  --      1.0611                 0.7367                 2.0763
 IR Inten    --      4.7016                 4.6775                 2.3765

                     31                     32                     33
                      A                      A                      A
 Frequencies --    580.9736               603.0759               613.4835
 Red. masses --     13.9808                 5.9603                 6.2595
 Frc consts  --      2.7803                 1.2772                 1.3880
 IR Inten    --      3.7148                58.5288                50.8967

                     34                     35                     36
                      A                      A                      A
 Frequencies --    643.8829               676.4919               726.6853
 Red. masses --      6.6589                 5.4439                 3.3907
 Frc consts  --      1.6265                 1.4679                 1.0550
 IR Inten    --     12.7284                88.2850                36.1946

                     37                     38                     39
                      A                      A                      A
 Frequencies --    739.0563               782.8708               784.2279
 Red. masses --      6.2092                 5.3525                 5.9036
 Frc consts  --      1.9982                 1.9328                 2.1392
 IR Inten    --     15.4542                10.5452               110.1788

                     40                     41                     42
                      A                      A                      A
 Frequencies --    815.4299               864.7783               886.6259
 Red. masses --     10.0834                 1.2590                 1.8567
 Frc consts  --      3.9503                 0.5548                 0.8600
 IR Inten    --     32.1788                 1.3596                47.4801

                     43                     44                     45
                      A                      A                      A
 Frequencies --    890.6736               918.2051              1004.5055
 Red. masses --      4.0378                 5.8796                 1.7254
 Frc consts  --      1.8873                 2.9206                 1.0257
 IR Inten    --     72.9189                88.1973                64.4761

                     46                     47                     48
                      A                      A                      A
 Frequencies --   1007.9537              1019.6281              1030.4610
 Red. masses --      1.3874                 1.3683                 2.6216
 Frc consts  --      0.8305                 0.8382                 1.6402
 IR Inten    --      5.1786                 0.8016                 5.1641

                     49                     50                     51
                      A                      A                      A
 Frequencies --   1032.4876              1057.6842              1087.6296
 Red. masses --      1.4954                 1.6144                 1.9488
 Frc consts  --      0.9392                 1.0641                 1.3582
 IR Inten    --      3.0278                 0.9079                 5.7934

                     52                     53                     54
                      A                      A                      A
 Frequencies --   1116.3121              1137.9466              1148.7336
 Red. masses --      1.2253                 3.2748                 1.8818
 Frc consts  --      0.8997                 2.4985                 1.4631
 IR Inten    --      9.7907               101.3718                37.4445

                     55                     56                     57
                      A                      A                      A
 Frequencies --   1186.3251              1193.1005              1216.0875
 Red. masses --     11.9286                 1.5431                 4.0185
 Frc consts  --      9.8911                 1.2942                 3.5014
 IR Inten    --    233.8150                 4.9308                86.1345

                     58                     59                     60
                      A                      A                      A
 Frequencies --   1293.3940              1299.5000              1331.2077
 Red. masses --     11.4680                 1.3101                12.7073
 Frc consts  --     11.3032                 1.3035                13.2677
 IR Inten    --     58.5090                 1.0144               236.4960

                     61                     62                     63
                      A                      A                      A
 Frequencies --   1337.3694              1346.8922              1367.4073
 Red. masses --      2.9919                13.2342                 7.5820
 Frc consts  --      3.1528                14.1454                 8.3527
 IR Inten    --      1.0807               250.9884                12.9196

                     64                     65                     66
                      A                      A                      A
 Frequencies --   1401.0724              1405.6200              1446.0420
 Red. masses --      1.5626                 1.4421                 1.1102
 Frc consts  --      1.8072                 1.6787                 1.3678
 IR Inten    --      0.8071                23.3873                16.4721

                     67                     68                     69
                      A                      A                      A
 Frequencies --   1449.8116              1452.8172              1456.8554
 Red. masses --      1.3369                 1.3622                 1.8844
 Frc consts  --      1.6557                 1.6940                 2.3564
 IR Inten    --     45.6206                11.3583                49.6280

                     70                     71                     72
                      A                      A                      A
 Frequencies --   1457.4776              1464.3200              1512.9501
 Red. masses --      3.3081                 1.1013                14.6569
 Frc consts  --      4.1403                 1.3913                19.7670
 IR Inten    --    109.1285                24.5977               317.0091

                     73                     74                     75
                      A                      A                      A
 Frequencies --   1546.2193              1682.2150              1697.6474
 Red. masses --      3.0255                 8.5701                 6.9045
 Frc consts  --      4.2617                14.2890                11.7241
 IR Inten    --     16.7124                19.6907                10.6450

                     76                     77                     78
                      A                      A                      A
 Frequencies --   1795.6957              1803.0851              3066.7733
 Red. masses --     13.6458                 9.4636                 1.0388
 Frc consts  --     25.9248                18.1275                 5.7564
 IR Inten    --    259.6556                20.8571                10.4610

                     79                     80                     81
                      A                      A                      A
 Frequencies --   3070.6342              3140.7686              3148.6905
 Red. masses --      1.0401                 1.1024                 1.1026
 Frc consts  --      5.7780                 6.4071                 6.4409
 IR Inten    --      5.8329                 4.1003                 2.0167

                     82                     83                     84
                      A                      A                      A
 Frequencies --   3192.9555              3213.4215              3226.2386
 Red. masses --      1.1030                 1.1006                 1.0927
 Frc consts  --      6.6254                 6.6960                 6.7011
 IR Inten    --      7.9947                 7.4658                 0.3976

                     85                     86                     87
                      A                      A                      A
 Frequencies --   3229.4765              3265.9052              3266.3528
 Red. masses --      1.0927                 1.0953                 1.0956
 Frc consts  --      6.7148                 6.8834                 6.8871
 IR Inten    --      0.7865                 6.7226                 5.9933

 - Thermochemistry -
 -------------------
 Temperature   298.150 Kelvin.  Pressure   1.00000 Atm.
 Atom     1 has atomic number  6 and mass  12.00000

 Molecular mass:   325.02318 amu.
 Principal axes and moments of inertia in atomic units:
                           1         2         3
     Eigenvalues --  3908.721319183.36506**********
           X            0.99967   0.02578  -0.00136
           Y           -0.02578   0.99966   0.00394
           Z            0.00146  -0.00391   0.99999
 This molecule is an asymmetric top.
 Rotational symmetry number  1.
 Warning -- assumption of classical behavior for rotation
           may cause significant error
 Rotational temperatures (Kelvin)      0.02216     0.00943     0.00759
 Rotational constants (GHZ):           0.46172     0.19652     0.15825
 Zero-point vibrational energy     563202.8 (Joules/Mol)
                                  134.60870 (Kcal/Mol)
 Warning -- explicit consideration of  33 degrees of freedom as
           vibrations may cause significant error
 Vibrational temperatures:     39.06    54.71    56.38    69.87    97.55
          (Kelvin)            103.84   113.97   163.16   177.63   217.86
                              241.21   257.38   286.72   290.87   344.71
                              389.67   411.39   441.97   475.72   490.29
                              522.88   572.56   598.92   602.87   665.56
                              702.48   756.42   782.89   799.08   820.05
                              835.89   867.69   882.67   926.40   973.32
                             1045.54  1063.34  1126.38  1128.33  1173.22
                             1244.22  1275.66  1281.48  1321.09  1445.26
                             1450.22  1467.02  1482.60  1485.52  1521.77
                             1564.86  1606.12  1637.25  1652.77  1706.86
                             1716.61  1749.68  1860.91  1869.69  1915.31
                             1924.18  1937.88  1967.39  2015.83  2022.37
                             2080.53  2085.96  2090.28  2096.09  2096.99
                             2106.83  2176.80  2224.66  2420.33  2442.54
                             2583.61  2594.24  4412.40  4417.96  4518.87
                             4530.26  4593.95  4623.40  4641.84  4646.50
                             4698.91  4699.55

 Zero-point correction=                           0.214513 (Hartree/Particle)
 Thermal correction to Energy=                    0.234447
 Thermal correction to Enthalpy=                  0.235391
 Thermal correction to Gibbs Free Energy=         0.163839
 Sum of electronic and zero-point Energies=          -1551.921358
 Sum of electronic and thermal Energies=             -1551.901424
 Sum of electronic and thermal Enthalpies=           -1551.900480
 Sum of electronic and thermal Free Energies=        -1551.972032

                     E (Thermal)             CV                S
                      KCal/Mol        Cal/Mol-Kelvin    Cal/Mol-Kelvin
 Total                  147.118             72.190            150.595
 Electronic               0.000              0.000              0.000
 Translational            0.889              2.981             43.232
 Rotational               0.889              2.981             34.370
 Vibrational            145.340             66.229             72.994
 Vibration     1          0.593              1.984              6.027
 Vibration     2          0.594              1.982              5.359
 Vibration     3          0.594              1.981              5.300
 Vibration     4          0.595              1.978              4.875
 Vibration     5          0.598              1.970              4.216
 Vibration     6          0.598              1.967              4.093
 Vibration     7          0.600              1.963              3.910
 Vibration     8          0.607              1.938              3.210
 Vibration     9          0.610              1.929              3.046
 Vibration    10          0.619              1.901              2.654
 Vibration    11          0.624              1.882              2.462
 Vibration    12          0.629              1.868              2.340
 Vibration    13          0.637              1.841              2.140
 Vibration    14          0.639              1.837              2.113
 Vibration    15          0.657              1.780              1.806
 Vibration    16          0.675              1.727              1.591
 Vibration    17          0.684              1.700              1.498
 Vibration    18          0.697              1.660              1.377
 Vibration    19          0.713              1.614              1.257
 Vibration    20          0.720              1.594              1.209
 Vibration    21          0.737              1.548              1.107
 Vibration    22          0.764              1.475              0.970
 Vibration    23          0.779              1.435              0.905
 Vibration    24          0.782              1.429              0.895
 Vibration    25          0.820              1.333              0.759
 Vibration    26          0.844              1.276              0.688
 Vibration    27          0.881              1.193              0.597
 Vibration    28          0.899              1.153              0.556
 Vibration    29          0.911              1.128              0.533
 Vibration    30          0.926              1.096              0.504
 Vibration    31          0.938              1.072              0.484
 Vibration    32          0.961              1.025              0.444
 Vibration    33          0.973              1.003              0.427

 Optimization completed.
    -- Stationary point found.
 Normal termination of Gaussian 16 at Fri Dec 31 10:55:00 2021.
