 Gaussian 16, Revision C.01,
 Gaussian 16:  ES64L-G16RevC.01  3-Jul-2019

 ----------------------------------------------------------------------
 #N M062X/def2svp OPT FREQ=NoRaman temperature=273.15 Integral(Grid=Ult
 raFine)
 ----------------------------------------------------------------------

 ---------
 axMeCyhex
 ---------
 Symbolic Z-matrix:
 Charge =  0 Multiplicity = 1

 SCF Done:  E(RM062X) =  -274.830969150     A.U. after   12 cycles
 SCF Done:  E(RM062X) =  -274.838216630     A.U. after   11 cycles
 SCF Done:  E(RM062X) =  -274.838611230     A.U. after   10 cycles
 SCF Done:  E(RM062X) =  -274.838657854     A.U. after    9 cycles
 SCF Done:  E(RM062X) =  -274.838661599     A.U. after    7 cycles
 SCF Done:  E(RM062X) =  -274.838661845     A.U. after    6 cycles
 Optimization completed.
    -- Stationary point found.
 Normal termination of Gaussian 16 at Mon Dec 27 16:51:03 2021.

 -------------------------------------------------------------------
 #N Geom=AllCheck Guess=TCheck SCRF=Check GenChk RM062X/def2SVP Freq
 -------------------------------------------------------------------

 Structure from the checkpoint file:  "axMeCyhex.chk"
 ---------
 axMeCyhex
 ---------
 Charge =  0 Multiplicity = 1

                         Standard orientation:
 ---------------------------------------------------------------------
 Center     Atomic      Atomic             Coordinates (Angstroms)
 Number     Number       Type             X           Y           Z
 ---------------------------------------------------------------------
      1          6           0       -0.251723   -1.257475    0.637357
      2          6           0       -1.123854    0.000006    0.494378
      3          6           0       -0.251702    1.257469    0.637369
      4          6           0        0.936467    1.262058   -0.327286
      5          6           0        1.784050   -0.000001   -0.160628
      6          6           0        0.936466   -1.262060   -0.327278
      7          1           0       -0.867906    2.159368    0.493401
      8          1           0       -1.850273    0.000012    1.323838
      9          1           0        0.135510   -1.302016    1.670021
     10          1           0       -0.867936   -2.159358    0.493336
     11          1           0        0.575343    1.323596   -1.367870
     12          1           0        1.550630    2.160175   -0.161307
     13          1           0        2.621109   -0.000009   -0.875234
     14          1           0        2.231075    0.000004    0.849342
     15          1           0        0.575364   -1.323619   -1.367867
     16          1           0        1.550629   -2.160172   -0.161270
     17          1           0        0.135555    1.301967    1.670027
     18          6           0       -1.925296    0.000008   -0.808428
     19          1           0       -2.569780   -0.889412   -0.871551
     20          1           0       -2.569726    0.889465   -0.871591
     21          1           0       -1.276051   -0.000032   -1.696178
 ---------------------------------------------------------------------

 SCF Done:  E(RM062X) =  -274.838661845     A.U. after    1 cycles

 The electronic state is 1-A.
 Alpha  occ. eigenvalues --  -10.54622 -10.54090 -10.54072 -10.54057 -10.54009
 Alpha  occ. eigenvalues --  -10.54006 -10.53779  -0.92638  -0.84370  -0.82185
 Alpha  occ. eigenvalues --   -0.75456  -0.67892  -0.66610  -0.59714  -0.55322
 Alpha  occ. eigenvalues --   -0.51272  -0.51034  -0.48937  -0.46281  -0.45999
 Alpha  occ. eigenvalues --   -0.43587  -0.41653  -0.41368  -0.39330  -0.38986
 Alpha  occ. eigenvalues --   -0.36212  -0.34716  -0.34675
 Alpha virt. eigenvalues --    0.08597   0.10765   0.12723   0.13612   0.15425
 Alpha virt. eigenvalues --    0.15852   0.17263   0.17648   0.18310   0.18624
 Alpha virt. eigenvalues --    0.19475   0.20802   0.22977   0.23584   0.25313

 Mulliken charges:
               1
     1  C   -0.018819
     2  C   -0.171806
     3  C   -0.018820
     4  C   -0.056498
     5  C   -0.050937
     6  C   -0.056502
     7  H    0.028145
     8  H    0.026328
     9  H    0.022964
    10  H    0.028145
    11  H    0.026605
    12  H    0.033831
    13  H    0.033230
    14  H    0.022284
    15  H    0.026606
    16  H    0.033831
    17  H    0.022962
    18  C   -0.045033
    19  H    0.037457
    20  H    0.037456
    21  H    0.038573
 Sum of Mulliken charges =  -0.00000

 Dipole moment (field-independent basis, Debye):
    X=             -0.0100    Y=             -0.0000    Z=              0.0227  Tot=              0.0248
 Quadrupole moment (field-independent basis, Debye-Ang):
   XX=            -47.0084   YY=            -47.0865   ZZ=            -46.8875
   XY=             -0.0000   XZ=             -0.0249   YZ=              0.0000

  Exact polarizability:      78.670      -0.000      75.244       0.435       0.000      69.486
 Approx polarizability:      85.518      -0.000      84.758       0.729       0.000      85.598

                      1                      2                      3
                      A                      A                      A
 Frequencies --    162.9676               195.0028               241.9451
 Red. masses --      2.4291                 1.1978                 1.6058
 Frc consts  --      0.0380                 0.0268                 0.0554
 IR Inten    --      0.0608                 0.0819                 0.0094

                      4                      5                      6
                      A                      A                      A
 Frequencies --    317.0901               372.2302               397.8433
 Red. masses --      2.1088                 1.8469                 1.7647
 Frc consts  --      0.1249                 0.1508                 0.1646
 IR Inten    --      0.0278                 0.0004                 0.2753

                      7                      8                      9
                      A                      A                      A
 Frequencies --    452.0973               476.9212               604.1405
 Red. masses --      2.8538                 1.8297                 1.8118
 Frc consts  --      0.3437                 0.2452                 0.3896
 IR Inten    --      0.0375                 0.2937                 2.3626

                     10                     11                     12
                      A                      A                      A
 Frequencies --    776.1749               788.4546               840.7291
 Red. masses --      3.0017                 1.4619                 1.4594
 Frc consts  --      1.0655                 0.5355                 0.6078
 IR Inten    --      0.2858                 0.2494                 1.4922

                     13                     14                     15
                      A                      A                      A
 Frequencies --    861.3441               877.0552               928.9726
 Red. masses --      2.2970                 2.0649                 1.3925
 Frc consts  --      1.0041                 0.9358                 0.7080
 IR Inten    --      1.8058                 0.7415                 0.3365

                     16                     17                     18
                      A                      A                      A
 Frequencies --    966.1739               988.2230               997.3166
 Red. masses --      1.5727                 1.4933                 1.7321
 Frc consts  --      0.8650                 0.8592                 1.0151
 IR Inten    --      0.7691                 2.8858                 0.0554

                     19                     20                     21
                      A                      A                      A
 Frequencies --   1051.6981              1066.9132              1074.9326
 Red. masses --      1.9804                 1.2652                 1.6864
 Frc consts  --      1.2906                 0.8485                 1.1481
 IR Inten    --      1.0982                 0.0805                 1.7755

                     22                     23                     24
                      A                      A                      A
 Frequencies --   1106.5400              1133.6922              1178.7311
 Red. masses --      1.2804                 1.1436                 2.2143
 Frc consts  --      0.9237                 0.8660                 1.8126
 IR Inten    --      0.2110                 0.0000                 0.4183

                     25                     26                     27
                      A                      A                      A
 Frequencies --   1192.7566              1260.8635              1284.9331
 Red. masses --      1.6401                 1.2848                 1.2093
 Frc consts  --      1.3747                 1.2034                 1.1764
 IR Inten    --      3.1654                 0.4398                 1.0063

                     28                     29                     30
                      A                      A                      A
 Frequencies --   1291.4669              1332.1689              1351.6731
 Red. masses --      1.1580                 1.3158                 1.3897
 Frc consts  --      1.1380                 1.3758                 1.4960
 IR Inten    --      0.3617                 0.0298                 1.7365

                     31                     32                     33
                      A                      A                      A
 Frequencies --   1356.9049              1381.0038              1381.9321
 Red. masses --      1.8640                 1.4575                 1.8009
 Frc consts  --      2.0220                 1.6378                 2.0264
 IR Inten    --      0.0624                 0.0313                 0.3697

                     34                     35                     36
                      A                      A                      A
 Frequencies --   1386.2784              1386.5530              1409.1706
 Red. masses --      1.3938                 1.6847                 1.5424
 Frc consts  --      1.5781                 1.9083                 1.8045
 IR Inten    --      1.8796                 0.1139                 7.7966

                     37                     38                     39
                      A                      A                      A
 Frequencies --   1448.7920              1453.2195              1458.2623
 Red. masses --      1.0892                 1.0863                 1.0857
 Frc consts  --      1.3470                 1.3517                 1.3603
 IR Inten    --      0.1224                 1.6392                 6.3392

                     40                     41                     42
                      A                      A                      A
 Frequencies --   1460.2207              1478.1051              1481.9332
 Red. masses --      1.1097                 1.0675                 1.1115
 Frc consts  --      1.3941                 1.3741                 1.4382
 IR Inten    --     12.3075                13.2458                 4.0459

                     43                     44                     45
                      A                      A                      A
 Frequencies --   1483.0388              3045.1510              3046.2094
 Red. masses --      1.0740                 1.0672                 1.0689
 Frc consts  --      1.3917                 5.8304                 5.8437
 IR Inten    --      0.5979                13.4041                25.5741

                     46                     47                     48
                      A                      A                      A
 Frequencies --   3046.4841              3056.5307              3059.4017
 Red. masses --      1.0642                 1.0506                 1.0643
 Frc consts  --      5.8195                 5.7827                 5.8695
 IR Inten    --     25.1740                 3.4086                15.6384

                     49                     50                     51
                      A                      A                      A
 Frequencies --   3061.6813              3067.1758              3100.4429
 Red. masses --      1.0554                 1.0787                 1.1016
 Frc consts  --      5.8289                 5.9790                 6.2390
 IR Inten    --     58.9517                36.3593                46.7743

                     52                     53                     54
                      A                      A                      A
 Frequencies --   3101.9047              3109.2220              3111.7326
 Red. masses --      1.1019                 1.0970                 1.1036
 Frc consts  --      6.2465                 6.2483                 6.2959
 IR Inten    --     24.9521                40.5803                19.7723

                     55                     56                     57
                      A                      A                      A
 Frequencies --   3115.0790              3143.2292              3150.0744
 Red. masses --      1.1053                 1.1040                 1.1022
 Frc consts  --      6.3195                 6.4264                 6.4438
 IR Inten    --     66.0184                22.5938                28.5325

 - Thermochemistry -
 -------------------
 Temperature   273.150 Kelvin.  Pressure   1.00000 Atm.
 Atom     1 has atomic number  6 and mass  12.00000

 Molecular mass:    98.10955 amu.
 Principal axes and moments of inertia in atomic units:
                           1         2         3
     Eigenvalues --   516.15830 710.06129 933.28388
           X            0.99994  -0.00000   0.01124
           Y            0.00000   1.00000   0.00000
           Z           -0.01124  -0.00000   0.99994
 This molecule is an asymmetric top.
 Rotational symmetry number  1.
 Warning -- assumption of classical behavior for rotation
           may cause significant error
 Rotational temperatures (Kelvin)      0.16780     0.12198     0.09281
 Rotational constants (GHZ):           3.49649     2.54167     1.93375
 Zero-point vibrational energy     522473.7 (Joules/Mol)
                                  124.87422 (Kcal/Mol)
 Warning -- explicit consideration of   8 degrees of freedom as
           vibrations may cause significant error
 Vibrational temperatures:    234.47   280.57   348.11   456.22   535.56
          (Kelvin)            572.41   650.47   686.18   869.22  1116.74
                             1134.41  1209.62  1239.28  1261.89  1336.58
                             1390.11  1421.83  1434.92  1513.16  1535.05
                             1546.59  1592.06  1631.13  1695.93  1716.11
                             1814.10  1848.73  1858.13  1916.69  1944.76
                             1952.28  1986.96  1988.29  1994.55  1994.94
                             2027.48  2084.49  2090.86  2098.11  2100.93
                             2126.66  2132.17  2133.76  4381.29  4382.82
                             4383.21  4397.67  4401.80  4405.08  4412.98
                             4460.85  4462.95  4473.48  4477.09  4481.90
                             4522.41  4532.25

 Zero-point correction=                           0.199000 (Hartree/Particle)
 Thermal correction to Energy=                    0.204987
 Thermal correction to Enthalpy=                  0.205852
 Thermal correction to Gibbs Free Energy=         0.171734
 Sum of electronic and zero-point Energies=           -274.639662
 Sum of electronic and thermal Energies=              -274.633675
 Sum of electronic and thermal Enthalpies=            -274.632810
 Sum of electronic and thermal Free Energies=         -274.666928

                     E (Thermal)             CV                S
                      KCal/Mol        Cal/Mol-Kelvin    Cal/Mol-Kelvin
 Total                  128.631             25.630             78.379
 Electronic               0.000              0.000              0.000
 Translational            0.814              2.981             39.226
 Rotational               0.814              2.981             27.067
 Vibrational            127.003             19.668             12.087
 Vibration     1          0.576              1.870              2.351
 Vibration     2          0.590              1.821              2.019
 Vibration     3          0.614              1.739              1.635
 Vibration     4          0.663              1.583              1.184
 Vibration     5          0.706              1.457              0.940
 Vibration     6          0.728              1.396              0.845
 Vibration     7          0.778              1.264              0.675
 Vibration     8          0.802              1.204              0.609

 Optimization completed.
    -- Stationary point found.
 Normal termination of Gaussian 16 at Mon Dec 27 16:52:59 2021.
